/*--------------------------------*- C++ -*----------------------------------*\
  =========                 |
  \\      /  F ield         | OpenFOAM: The Open Source CFD Toolbox
   \\    /   O peration     | Website:  https://openfoam.org
    \\  /    A nd           | Version:  13
     \\/     M anipulation  |
\*---------------------------------------------------------------------------*/
FoamFile
{
    format      ascii;
    class       volScalarField;
    location    "0.6";
    object      p;
}
// * * * * * * * * * * * * * * * * * * * * * * * * * * * * * * * * * * * * * //

dimensions      [0 2 -2 0 0 0 0];

internalField   nonuniform List<scalar> 
68864
(
0.371763
0.370308
0.368693
0.366894
0.365083
0.363309
0.361536
0.359741
0.357928
0.356105
0.354271
0.352425
0.350566
0.348693
0.346807
0.344907
0.342994
0.341066
0.339124
0.337166
0.335193
0.333205
0.331201
0.32918
0.327142
0.325087
0.323015
0.320925
0.318816
0.316689
0.314542
0.312376
0.31019
0.307983
0.305755
0.303506
0.301236
0.298943
0.296627
0.294289
0.291927
0.289541
0.287131
0.284696
0.282236
0.279751
0.277241
0.274704
0.272141
0.269551
0.266934
0.264289
0.261617
0.258918
0.256191
0.253437
0.250654
0.247843
0.245003
0.242135
0.239239
0.236316
0.233365
0.230386
0.227379
0.224346
0.221285
0.218198
0.215086
0.211948
0.208785
0.205599
0.202389
0.199157
0.195903
0.192628
0.189333
0.18602
0.182689
0.179343
0.175981
0.172606
0.169219
0.165821
0.162414
0.159
0.155581
0.152158
0.148733
0.145307
0.141883
0.138463
0.13505
0.131645
0.12825
0.124868
0.121501
0.118149
0.114817
0.111506
0.108219
0.10496
0.101728
0.0985274
0.0953583
0.0922233
0.0891254
0.0860676
0.0830521
0.0800808
0.0771547
0.0742751
0.0714434
0.068662
0.0659333
0.0632597
0.0606423
0.058082
0.0555794
0.0531351
0.0507506
0.0484271
0.0461659
0.0439675
0.0418323
0.0397602
0.0377516
0.0358068
0.0339258
0.0321086
0.0303547
0.0286635
0.0270348
0.0254683
0.0239633
0.0225189
0.0211342
0.0198078
0.0185387
0.0173254
0.0161668
0.0150614
0.0140082
0.0130061
0.0120542
0.0111508
0.0102929
0.00947737
0.00870162
0.00796515
0.00726909
0.00661408
0.00599785
0.00541427
0.00485556
0.00431722
0.00380189
0.0033173
0.00286918
0.00245421
0.00205875
0.00166605
0.00126969
0.000881754
0.000529991
0.000239746
3.48842e-05
0.636716
0.635013
0.633021
0.63081
0.6286
0.626422
0.624227
0.621992
0.619724
0.617432
0.615113
0.612766
0.610388
0.607981
0.605544
0.603075
0.600574
0.598041
0.595475
0.592874
0.590239
0.587568
0.584861
0.582117
0.579335
0.576514
0.573654
0.570754
0.567812
0.564828
0.561802
0.558731
0.555616
0.552456
0.549249
0.545995
0.542692
0.539341
0.53594
0.532488
0.528984
0.525428
0.521818
0.518154
0.514434
0.51066
0.506828
0.502939
0.498992
0.494986
0.49092
0.486794
0.482607
0.478359
0.47405
0.469678
0.465243
0.460745
0.456183
0.451557
0.446868
0.442115
0.437299
0.432419
0.427475
0.422468
0.417397
0.412264
0.407068
0.401812
0.396496
0.391119
0.385684
0.380192
0.374643
0.36904
0.363383
0.357674
0.351916
0.34611
0.340259
0.334364
0.328428
0.322453
0.316443
0.310399
0.304325
0.298225
0.2921
0.285955
0.279793
0.273617
0.267432
0.261241
0.255049
0.24886
0.242676
0.236502
0.230343
0.224203
0.218088
0.212001
0.205947
0.19993
0.193954
0.188023
0.182142
0.176316
0.17055
0.16485
0.159217
0.153656
0.14817
0.142763
0.137438
0.132202
0.127058
0.122009
0.117058
0.112206
0.107456
0.102811
0.0982727
0.0938451
0.0895301
0.0853293
0.0812432
0.0772726
0.0734178
0.0696799
0.0660594
0.0625571
0.059173
0.0559068
0.0527576
0.0497243
0.0468058
0.0440006
0.0413072
0.038724
0.0362494
0.0338815
0.0316185
0.0294581
0.0273977
0.0254339
0.0235629
0.021781
0.0200854
0.0184746
0.0169471
0.0155001
0.0141288
0.0128263
0.0115861
0.0104047
0.00928191
0.00821949
0.00721737
0.00626871
0.00535986
0.0044774
0.00361558
0.00278721
0.00200406
0.00131643
0.000528733
0.953116
0.950827
0.948158
0.945256
0.942349
0.939459
0.936525
0.933528
0.930476
0.927378
0.924232
0.921034
0.917783
0.914479
0.91112
0.907707
0.904238
0.900711
0.897126
0.893482
0.889778
0.886013
0.882185
0.878294
0.874339
0.870318
0.86623
0.862074
0.857849
0.853554
0.849187
0.844748
0.840234
0.835646
0.830982
0.82624
0.821419
0.816519
0.811537
0.806473
0.801325
0.796093
0.790775
0.78537
0.779877
0.774294
0.768621
0.762857
0.757001
0.751051
0.745007
0.738867
0.732632
0.7263
0.719871
0.713343
0.706718
0.699992
0.693168
0.686243
0.679219
0.672095
0.664871
0.657548
0.650125
0.642603
0.634982
0.627264
0.619448
0.611537
0.60353
0.595431
0.58724
0.578959
0.57059
0.562134
0.553595
0.544974
0.536274
0.527499
0.518651
0.509735
0.500753
0.491709
0.482607
0.473451
0.464247
0.454998
0.445709
0.436387
0.427034
0.417657
0.408262
0.398855
0.389442
0.380029
0.370623
0.361228
0.351852
0.342501
0.333182
0.323904
0.314673
0.305495
0.296377
0.287324
0.278344
0.269445
0.260634
0.251919
0.243306
0.234799
0.226405
0.218128
0.209976
0.201956
0.194075
0.186338
0.178748
0.171308
0.164023
0.156897
0.149935
0.143141
0.13652
0.130072
0.123799
0.117703
0.111784
0.106044
0.100486
0.0951099
0.0899155
0.0849021
0.0800689
0.0754144
0.070937
0.0666344
0.0625044
0.0585451
0.0547544
0.0511304
0.0476697
0.0443675
0.0412181
0.0382156
0.035356
0.0326371
0.0300573
0.0276133
0.0252983
0.0231026
0.0210159
0.0190317
0.0171481
0.0153664
0.013686
0.0120996
0.0105933
0.00915094
0.00776119
0.00642183
0.00514008
0.00391703
0.00276505
0.00160795
0.000566455
1.21795
1.21511
1.2119
1.20849
1.20508
1.20166
1.19818
1.19463
1.19101
1.18734
1.18361
1.17981
1.17595
1.17202
1.16803
1.16397
1.15983
1.15563
1.15135
1.14699
1.14257
1.13806
1.13347
1.12881
1.12406
1.11922
1.11431
1.1093
1.10421
1.09902
1.09375
1.08838
1.08291
1.07735
1.07168
1.06592
1.06005
1.05408
1.04801
1.04182
1.03553
1.02912
1.0226
1.01597
1.00922
1.00235
0.995367
0.988259
0.981029
0.973674
0.966194
0.958587
0.950852
0.942987
0.934993
0.926867
0.918609
0.910217
0.901692
0.893031
0.884236
0.875306
0.866241
0.85704
0.847704
0.838234
0.828628
0.818889
0.809016
0.799012
0.788877
0.778614
0.768224
0.757709
0.747071
0.736311
0.725434
0.714443
0.70334
0.69213
0.680817
0.669404
0.657896
0.646296
0.634611
0.622847
0.611008
0.599102
0.587134
0.575109
0.563035
0.550918
0.538767
0.526589
0.514393
0.502186
0.489977
0.477771
0.465578
0.453408
0.441269
0.429173
0.417128
0.405142
0.393222
0.381378
0.36962
0.357957
0.346402
0.334962
0.323647
0.312461
0.301414
0.290512
0.279768
0.26919
0.258787
0.248565
0.23853
0.228685
0.219037
0.209593
0.200361
0.191347
0.182555
0.173987
0.165645
0.15753
0.149648
0.142001
0.134592
0.127422
0.120491
0.113797
0.107338
0.101114
0.0951239
0.0893678
0.0838428
0.0785451
0.0734702
0.068614
0.0639731
0.0595437
0.055321
0.0512985
0.0474693
0.0438273
0.0403682
0.0370881
0.0339809
0.0310368
0.0282435
0.0255904
0.0230725
0.0206895
0.0184409
0.0163185
0.0143049
0.0123781
0.0105229
0.00873731
0.00702999
0.00540531
0.00386177
0.00235371
0.000803204
1.49023
1.48723
1.4838
1.48018
1.47654
1.47288
1.46914
1.46531
1.4614
1.45741
1.45333
1.44918
1.44494
1.44061
1.43619
1.43168
1.42708
1.42238
1.41758
1.41269
1.4077
1.4026
1.3974
1.39209
1.38667
1.38115
1.3755
1.36975
1.36388
1.35788
1.35177
1.34553
1.33917
1.33268
1.32605
1.3193
1.31241
1.30538
1.29821
1.2909
1.28345
1.27586
1.26811
1.26021
1.25216
1.24396
1.2356
1.22709
1.21841
1.20957
1.20057
1.1914
1.18207
1.17256
1.16289
1.15305
1.14303
1.13284
1.12248
1.11194
1.10123
1.09034
1.07927
1.06803
1.05662
1.04502
1.03326
1.02132
1.0092
0.996918
0.984464
0.971842
0.959055
0.946105
0.932994
0.919726
0.906304
0.892732
0.879015
0.865158
0.851164
0.837039
0.822788
0.808417
0.793933
0.779343
0.764655
0.749874
0.73501
0.720068
0.705058
0.689989
0.674871
0.659714
0.644528
0.629322
0.614106
0.598888
0.583681
0.568497
0.553348
0.538246
0.523201
0.508224
0.493325
0.478516
0.463809
0.449219
0.434757
0.420435
0.406263
0.392249
0.378404
0.364739
0.351267
0.338001
0.32495
0.312122
0.299523
0.287161
0.275043
0.26318
0.251581
0.240254
0.229202
0.218428
0.207936
0.197728
0.187812
0.178192
0.168871
0.15985
0.151126
0.142699
0.134566
0.12673
0.119191
0.111948
0.104996
0.0983288
0.0919417
0.0858298
0.0799899
0.0744182
0.069109
0.064054
0.0592441
0.0546713
0.0503296
0.0462132
0.0423142
0.038621
0.0351202
0.0318009
0.0286571
0.0256861
0.0228827
0.0202329
0.0177146
0.0153059
0.0129947
0.0107824
0.00867553
0.00667035
0.00474923
0.00286252
0.000920743
1.74898
1.74551
1.74159
1.7375
1.7334
1.72926
1.72502
1.72068
1.71625
1.71173
1.70711
1.7024
1.69759
1.69268
1.68767
1.68255
1.67733
1.67199
1.66655
1.66099
1.65531
1.64951
1.64359
1.63755
1.63138
1.62509
1.61866
1.61209
1.60539
1.59855
1.59157
1.58444
1.57716
1.56973
1.56215
1.55441
1.54652
1.53846
1.53023
1.52184
1.51328
1.50455
1.49564
1.48655
1.47728
1.46783
1.45819
1.44836
1.43834
1.42813
1.41773
1.40712
1.39632
1.38531
1.3741
1.36268
1.35106
1.33923
1.32719
1.31494
1.30248
1.28981
1.27692
1.26382
1.25051
1.23699
1.22326
1.20931
1.19516
1.18079
1.16623
1.15145
1.13648
1.12131
1.10594
1.09038
1.07463
1.05869
1.04258
1.0263
1.00985
0.993236
0.976467
0.959551
0.942494
0.925306
0.907993
0.890565
0.873029
0.855397
0.837678
0.819883
0.802023
0.784111
0.766158
0.748174
0.730171
0.712161
0.694159
0.676178
0.658233
0.640337
0.622503
0.604744
0.587073
0.569503
0.552051
0.534732
0.51756
0.500549
0.483711
0.467056
0.450598
0.434352
0.418333
0.402553
0.387024
0.371756
0.356757
0.342036
0.327606
0.313477
0.299661
0.286164
0.272991
0.260146
0.247634
0.235464
0.22364
0.212169
0.201051
0.190288
0.179877
0.169819
0.160115
0.150768
0.141774
0.133132
0.124835
0.116878
0.109255
0.101965
0.0950018
0.0883605
0.0820317
0.076005
0.070271
0.0648225
0.0596535
0.0547561
0.0501185
0.0457259
0.0415633
0.0376202
0.0338911
0.0303715
0.0270508
0.0239091
0.020921
0.0180653
0.0153337
0.0127292
0.0102529
0.00788863
0.00561005
0.00334153
0.00109954
2.00086
1.99724
1.99315
1.98888
1.98461
1.98028
1.97584
1.97128
1.96662
1.96185
1.95697
1.95198
1.94688
1.94165
1.93631
1.93084
1.92525
1.91953
1.91368
1.90769
1.90157
1.8953
1.8889
1.88234
1.87564
1.86878
1.86177
1.85459
1.84726
1.83976
1.83209
1.82424
1.81623
1.80803
1.79965
1.79108
1.78233
1.77338
1.76423
1.75489
1.74534
1.73559
1.72563
1.71545
1.70506
1.69445
1.68362
1.67257
1.66128
1.64976
1.63802
1.62603
1.61381
1.60134
1.58863
1.57568
1.56248
1.54903
1.53533
1.52138
1.50717
1.49271
1.478
1.46304
1.44782
1.43235
1.41662
1.40064
1.38441
1.36793
1.35121
1.33424
1.31703
1.29958
1.2819
1.26399
1.24585
1.22749
1.20892
1.19014
1.17116
1.15198
1.13262
1.11308
1.09338
1.07351
1.05349
1.03333
1.01305
0.992643
0.972133
0.951531
0.930848
0.910099
0.889297
0.868456
0.847589
0.826711
0.805838
0.784986
0.764172
0.743412
0.72272
0.702112
0.681603
0.661211
0.640952
0.620846
0.600909
0.581154
0.561598
0.542254
0.523138
0.504267
0.485658
0.467325
0.449281
0.431537
0.414105
0.396998
0.380228
0.363809
0.347749
0.332058
0.316742
0.301807
0.287262
0.273115
0.259371
0.246035
0.233108
0.22059
0.208483
0.19679
0.185513
0.174649
0.164197
0.154149
0.144502
0.135252
0.126396
0.11793
0.109847
0.102136
0.0947857
0.0877871
0.081132
0.0748137
0.068824
0.0631509
0.0577785
0.0526897
0.0478703
0.0433112
0.0390062
0.0349464
0.0311147
0.0274862
0.024035
0.0207434
0.0176064
0.0146241
0.0117879
0.00906848
0.00643551
0.00379261
0.00129029
2.25262
2.24862
2.24411
2.23945
2.23479
2.23005
2.22518
2.22018
2.21507
2.20984
2.20449
2.19901
2.1934
2.18766
2.18179
2.17578
2.16962
2.16332
2.15688
2.15028
2.14353
2.13662
2.12954
2.12231
2.1149
2.10732
2.09956
2.09163
2.08351
2.0752
2.0667
2.05801
2.04911
2.04002
2.03071
2.0212
2.01147
2.00152
1.99134
1.98094
1.97031
1.95945
1.94834
1.937
1.9254
1.91356
1.90146
1.88911
1.87649
1.86361
1.85047
1.83705
1.82336
1.80939
1.79515
1.78062
1.76581
1.75072
1.73533
1.71966
1.7037
1.68745
1.6709
1.65407
1.63694
1.61952
1.60181
1.58381
1.56552
1.54695
1.52809
1.50895
1.48953
1.46984
1.44987
1.42965
1.40916
1.38842
1.36744
1.34621
1.32476
1.30308
1.28119
1.25909
1.23679
1.21431
1.19166
1.16885
1.14589
1.1228
1.09958
1.07625
1.05284
1.02934
1.00579
0.982186
0.958554
0.934909
0.91127
0.887654
0.86408
0.840565
0.817129
0.793787
0.770558
0.747462
0.724519
0.701747
0.679166
0.656794
0.634646
0.61274
0.591094
0.569726
0.548655
0.527895
0.507464
0.487373
0.467639
0.448274
0.429292
0.410707
0.392528
0.374765
0.357429
0.340528
0.324072
0.308066
0.292516
0.277426
0.262798
0.248636
0.234944
0.221723
0.208974
0.196691
0.184871
0.173509
0.162605
0.152155
0.142154
0.132594
0.123466
0.114757
0.106458
0.0985606
0.0910563
0.0839362
0.077188
0.0707962
0.0647434
0.0590131
0.0535921
0.0484705
0.0436386
0.0390821
0.0347794
0.0307039
0.0268314
0.0231468
0.0196448
0.0163189
0.0131512
0.0101004
0.0071405
0.00415831
0.00145494
2.49683
2.49262
2.48786
2.48297
2.47808
2.47309
2.46796
2.46269
2.4573
2.45177
2.4461
2.4403
2.43435
2.42825
2.422
2.4156
2.40904
2.40232
2.39543
2.38837
2.38114
2.37373
2.36614
2.35836
2.35039
2.34223
2.33387
2.3253
2.31653
2.30754
2.29834
2.28892
2.27927
2.26939
2.25928
2.24892
2.23832
2.22748
2.21638
2.20502
2.1934
2.18151
2.16935
2.15692
2.1442
2.1312
2.11791
2.10433
2.09045
2.07627
2.06178
2.04699
2.03188
2.01646
2.00072
1.98466
1.96828
1.95157
1.93453
1.91716
1.89946
1.88143
1.86307
1.84437
1.82534
1.80598
1.78628
1.76626
1.7459
1.72522
1.70422
1.68289
1.66125
1.6393
1.61704
1.59448
1.57162
1.54847
1.52505
1.50135
1.47739
1.45318
1.42872
1.40403
1.37912
1.354
1.32868
1.30319
1.27752
1.25171
1.22575
1.19968
1.1735
1.14724
1.1209
1.09452
1.0681
1.04167
1.01525
0.988857
0.962511
0.936234
0.910045
0.883965
0.858015
0.832216
0.80659
0.781158
0.755941
0.73096
0.706233
0.681781
0.657622
0.633776
0.610262
0.587099
0.564306
0.541897
0.519889
0.498297
0.477132
0.45641
0.436144
0.416345
0.397027
0.378198
0.359866
0.342035
0.324712
0.307902
0.291612
0.275847
0.260609
0.245896
0.231704
0.218032
0.204877
0.192239
0.180115
0.168499
0.157382
0.146755
0.136607
0.126928
0.117711
0.108946
0.10062
0.0927213
0.0852344
0.0781437
0.0714329
0.065086
0.0590877
0.0534246
0.0480828
0.0430449
0.0382877
0.0337849
0.0295128
0.0254561
0.0216061
0.0179494
0.014461
0.0110918
0.00782549
0.00452557
0.00164162
2.7445
2.73994
2.7348
2.72953
2.72427
2.71891
2.71337
2.70769
2.70186
2.69589
2.68978
2.6835
2.67707
2.67047
2.66371
2.65677
2.64966
2.64237
2.6349
2.62724
2.61939
2.61134
2.60309
2.59463
2.58596
2.57708
2.56797
2.55864
2.54908
2.53928
2.52924
2.51896
2.50842
2.49763
2.48657
2.47525
2.46366
2.45179
2.43964
2.4272
2.41447
2.40143
2.3881
2.37446
2.3605
2.34623
2.33163
2.31671
2.30146
2.28586
2.26993
2.25365
2.23703
2.22005
2.20272
2.18503
2.16697
2.14856
2.12977
2.11062
2.0911
2.0712
2.05094
2.0303
2.00929
1.98791
1.96616
1.94404
1.92155
1.89869
1.87548
1.85191
1.82799
1.80372
1.77911
1.75417
1.72889
1.7033
1.6774
1.6512
1.6247
1.59793
1.57088
1.54358
1.51604
1.48827
1.46028
1.4321
1.40373
1.3752
1.34652
1.31771
1.28879
1.25978
1.2307
1.20156
1.1724
1.14323
1.11407
1.08495
1.05588
1.0269
0.998023
0.969272
0.940671
0.912243
0.884011
0.856
0.828233
0.800732
0.773519
0.746614
0.720038
0.693811
0.667956
0.642494
0.617445
0.592826
0.568653
0.544938
0.521698
0.498949
0.476707
0.454986
0.433798
0.413149
0.393045
0.373494
0.354503
0.336082
0.318239
0.300975
0.284288
0.268175
0.252635
0.237667
0.223273
0.209451
0.196195
0.183495
0.171339
0.159718
0.148625
0.138053
0.127992
0.118427
0.109342
0.100721
0.0925519
0.0848198
0.0775083
0.0705984
0.064071
0.0579094
0.0520984
0.0466201
0.0414505
0.0365614
0.0319275
0.0275316
0.0233627
0.0194024
0.0156218
0.011964
0.00842438
0.0048368
0.00180282
2.9875
2.98266
2.97719
2.97163
2.96606
2.96038
2.95451
2.94848
2.9423
2.93596
2.92945
2.92277
2.91592
2.90889
2.90168
2.89427
2.88668
2.87889
2.8709
2.8627
2.85429
2.84566
2.83681
2.82773
2.81842
2.80887
2.79907
2.78903
2.77873
2.76817
2.75735
2.74625
2.73487
2.72321
2.71126
2.69901
2.68646
2.67361
2.66044
2.64695
2.63313
2.61899
2.60451
2.58968
2.57451
2.55898
2.5431
2.52685
2.51023
2.49324
2.47587
2.45812
2.43998
2.42144
2.40252
2.38319
2.36346
2.34333
2.32279
2.30184
2.28047
2.2587
2.23652
2.21392
2.1909
2.16748
2.14364
2.1194
2.09475
2.0697
2.04425
2.0184
1.99217
1.96555
1.93855
1.91119
1.88347
1.8554
1.82698
1.79824
1.76918
1.73981
1.71015
1.68021
1.65
1.61956
1.58887
1.55798
1.52689
1.49563
1.46421
1.43265
1.40097
1.36921
1.33737
1.30549
1.27358
1.24167
1.20978
1.17794
1.14617
1.11451
1.08296
1.05157
1.02034
0.989318
0.958517
0.927966
0.897691
0.867716
0.838065
0.808757
0.779816
0.751264
0.723127
0.695428
0.668187
0.641421
0.615144
0.589373
0.564125
0.539419
0.515274
0.491703
0.468713
0.446311
0.424503
0.4033
0.382715
0.362757
0.34343
0.324731
0.306657
0.289205
0.272379
0.256182
0.240615
0.22567
0.211336
0.1976
0.184454
0.171893
0.159911
0.148498
0.137639
0.127314
0.117506
0.108203
0.0993934
0.0910613
0.0831865
0.0757453
0.0687166
0.0620842
0.0558341
0.0499471
0.0443951
0.0391457
0.0341718
0.0294568
0.02499
0.0207492
0.0167001
0.0127762
0.00898625
0.00512789
0.001964
3.2347
3.2295
3.22362
3.21766
3.21172
3.20563
3.19934
3.19287
3.18623
3.17943
3.17244
3.16526
3.1579
3.15034
3.14258
3.13461
3.12644
3.11804
3.10943
3.10059
3.09152
3.0822
3.07265
3.06284
3.05278
3.04246
3.03187
3.021
3.00986
2.99843
2.9867
2.97468
2.96234
2.9497
2.93674
2.92345
2.90983
2.89587
2.88157
2.86692
2.8519
2.83652
2.82078
2.80465
2.78814
2.77124
2.75395
2.73626
2.71816
2.69965
2.68072
2.66137
2.64159
2.62138
2.60074
2.57966
2.55814
2.53617
2.51376
2.49089
2.46758
2.44381
2.41959
2.39491
2.36979
2.34421
2.31819
2.29171
2.2648
2.23744
2.20965
2.18143
2.15279
2.12373
2.09426
2.0644
2.03414
2.00351
1.9725
1.94115
1.90945
1.87742
1.84508
1.81245
1.77954
1.74636
1.71294
1.6793
1.64546
1.61143
1.57724
1.54292
1.50848
1.47395
1.43936
1.40473
1.37009
1.33546
1.30086
1.26633
1.23189
1.19758
1.16341
1.12942
1.09563
1.06206
1.02875
0.995727
0.963017
0.930644
0.898631
0.867002
0.835781
0.804994
0.774669
0.744828
0.715491
0.686673
0.658392
0.630664
0.603514
0.57696
0.551017
0.525697
0.501005
0.47695
0.453542
0.430797
0.408725
0.387331
0.366615
0.346572
0.327202
0.308508
0.290495
0.273164
0.256509
0.24052
0.225182
0.210488
0.196432
0.183011
0.170214
0.158027
0.146428
0.1354
0.124929
0.115005
0.105613
0.0967342
0.0883414
0.0804094
0.0729198
0.0658598
0.0592146
0.0529595
0.0470591
0.0414778
0.0361907
0.0311859
0.0264529
0.0219621
0.0176711
0.0135034
0.00948473
0.00537502
0.00211512
3.48022
3.47467
3.46839
3.46206
3.45574
3.44926
3.44256
3.43567
3.42859
3.42134
3.41388
3.40622
3.39835
3.39027
3.38197
3.37345
3.3647
3.35571
3.34648
3.33701
3.32728
3.31729
3.30703
3.2965
3.28569
3.27459
3.2632
3.25151
3.23952
3.22721
3.21458
3.20162
3.18832
3.17469
3.1607
3.14636
3.13165
3.11657
3.10111
3.08527
3.06904
3.0524
3.03536
3.01791
3.00003
2.98173
2.963
2.94382
2.9242
2.90413
2.8836
2.86261
2.84115
2.81923
2.79682
2.77394
2.75057
2.72671
2.70237
2.67753
2.65221
2.62639
2.60007
2.57326
2.54596
2.51817
2.48989
2.46113
2.43188
2.40216
2.37197
2.34132
2.3102
2.27864
2.24664
2.21421
2.18137
2.14811
2.11447
2.08045
2.04606
2.01133
1.97627
1.9409
1.90523
1.86929
1.83311
1.79669
1.76006
1.72325
1.68629
1.64918
1.61197
1.57468
1.53734
1.49997
1.46259
1.42525
1.38797
1.35077
1.31369
1.27676
1.24001
1.20346
1.16714
1.13108
1.09532
1.05988
1.0248
0.990089
0.955783
0.921903
0.888478
0.855536
0.823103
0.791201
0.759848
0.729062
0.698862
0.669271
0.640311
0.611998
0.584346
0.557362
0.531055
0.505439
0.480527
0.456331
0.43286
0.410112
0.388085
0.36678
0.346199
0.32635
0.307233
0.288843
0.27117
0.2542
0.237927
0.222345
0.207451
0.193236
0.179683
0.166772
0.154484
0.142805
0.131726
0.121233
0.111308
0.101921
0.0930449
0.0846582
0.0767476
0.0693012
0.0622982
0.0557045
0.0494792
0.0435887
0.0380157
0.0327522
0.0277832
0.0230667
0.0185514
0.0141553
0.00992746
0.00559057
0.00226541
3.73009
3.72413
3.71739
3.71062
3.70387
3.69694
3.68976
3.68238
3.6748
3.66702
3.65903
3.65081
3.64237
3.63369
3.62478
3.61563
3.60622
3.59656
3.58664
3.57644
3.56597
3.55522
3.54417
3.53283
3.52118
3.50922
3.49694
3.48433
3.47139
3.4581
3.44447
3.43047
3.41611
3.40138
3.38627
3.37076
3.35486
3.33855
3.32183
3.30469
3.28712
3.26911
3.25066
3.23175
3.21239
3.19257
3.17227
3.15149
3.13023
3.10847
3.08622
3.06346
3.04019
3.01641
2.99212
2.9673
2.94195
2.91608
2.88968
2.86274
2.83527
2.80727
2.77873
2.74966
2.72006
2.68993
2.65927
2.62809
2.59639
2.56418
2.53147
2.49826
2.46457
2.43039
2.39575
2.36065
2.32512
2.28915
2.25277
2.21599
2.17883
2.14131
2.10345
2.06527
2.02679
1.98803
1.94901
1.90977
1.87031
1.83068
1.7909
1.75099
1.71099
1.67092
1.63081
1.5907
1.5506
1.51056
1.4706
1.43076
1.39107
1.35156
1.31226
1.27319
1.2344
1.19591
1.15776
1.11998
1.08259
1.04562
1.00909
0.973049
0.937508
0.9025
0.868049
0.834178
0.800904
0.76825
0.736237
0.704887
0.674219
0.644248
0.614984
0.586437
0.558622
0.531554
0.505244
0.4797
0.454923
0.430913
0.407671
0.385201
0.363511
0.342601
0.322468
0.303099
0.284484
0.266614
0.249488
0.233101
0.217445
0.202502
0.188253
0.174677
0.161762
0.149496
0.137869
0.126862
0.116446
0.106592
0.0972751
0.0884798
0.0801952
0.0724042
0.0650761
0.0581693
0.0516436
0.0454737
0.0396494
0.0341615
0.0289834
0.0240586
0.0193328
0.014726
0.0103153
0.0057836
0.00241139
3.98061
3.97422
3.96701
3.95979
3.95259
3.94519
3.93753
3.92964
3.92154
3.91322
3.90467
3.89587
3.88684
3.87755
3.868
3.85819
3.84811
3.83775
3.82711
3.81617
3.80493
3.79338
3.78151
3.76932
3.7568
3.74394
3.73073
3.71717
3.70324
3.68893
3.67425
3.65917
3.6437
3.62782
3.61152
3.5948
3.57765
3.56006
3.54201
3.52351
3.50454
3.4851
3.46517
3.44475
3.42383
3.40241
3.38047
3.35801
3.33503
3.31151
3.28745
3.26284
3.23768
3.21197
3.18569
3.15885
3.13144
3.10346
3.07491
3.04578
3.01607
2.98579
2.95494
2.92351
2.89151
2.85894
2.82581
2.79212
2.75788
2.72309
2.68777
2.65192
2.61555
2.57867
2.54131
2.50346
2.46515
2.42639
2.3872
2.3476
2.3076
2.26723
2.22651
2.18547
2.14412
2.10249
2.06061
2.0185
1.97619
1.93371
1.8911
1.84837
1.80556
1.76271
1.71985
1.677
1.63419
1.59147
1.54887
1.50641
1.46414
1.42209
1.38029
1.33877
1.29756
1.2567
1.21622
1.17616
1.13654
1.09739
1.05873
1.02061
0.983037
0.946052
0.909673
0.873925
0.838828
0.804407
0.770682
0.737673
0.705394
0.67386
0.643082
0.613077
0.58386
0.555442
0.527831
0.501029
0.475037
0.449857
0.425496
0.401961
0.379252
0.357366
0.336292
0.316019
0.29654
0.277852
0.259954
0.242835
0.22648
0.210868
0.19598
0.181801
0.168321
0.155529
0.143407
0.131928
0.121061
0.110781
0.101069
0.091912
0.0832953
0.0751919
0.067563
0.0603662
0.0535688
0.0471541
0.041114
0.0354295
0.0300596
0.0249379
0.0200161
0.0152218
0.0106601
0.005966
0.00254688
4.23559
4.22873
4.221
4.21327
4.20557
4.19766
4.18945
4.18099
4.17232
4.1634
4.15423
4.1448
4.13511
4.12514
4.11489
4.10436
4.09353
4.0824
4.07096
4.0592
4.04711
4.03469
4.02192
4.0088
3.99532
3.98148
3.96725
3.95264
3.93763
3.92221
3.90638
3.89013
3.87344
3.85631
3.83873
3.82069
3.80218
3.78319
3.76371
3.74373
3.72325
3.70225
3.68072
3.65867
3.63607
3.61292
3.58922
3.56495
3.54011
3.5147
3.48869
3.4621
3.43491
3.40712
3.37873
3.34973
3.32011
3.28988
3.25903
3.22757
3.19549
3.16279
3.12947
3.09555
3.06101
3.02587
2.99012
2.95379
2.91687
2.87937
2.8413
2.80268
2.76352
2.72382
2.68361
2.6429
2.60171
2.56005
2.51795
2.47543
2.4325
2.3892
2.34554
2.30155
2.25727
2.21271
2.1679
2.12288
2.07767
2.03231
1.98683
1.94126
1.89563
1.84999
1.80436
1.75877
1.71327
1.66789
1.62266
1.57762
1.53281
1.48826
1.44401
1.40008
1.35651
1.31335
1.27061
1.22834
1.18656
1.14531
1.10461
1.0645
1.02499
0.986118
0.947907
0.910382
0.873567
0.837484
0.802151
0.767582
0.733792
0.700798
0.668617
0.637264
0.606752
0.577086
0.548269
0.520303
0.493192
0.466945
0.441569
0.417064
0.393425
0.370643
0.348707
0.327612
0.307356
0.287936
0.269342
0.251558
0.234566
0.218345
0.202883
0.188168
0.174188
0.160923
0.14835
0.13644
0.125166
0.114508
0.10445
0.0949755
0.0860604
0.0776703
0.0697646
0.0623067
0.0552727
0.0486496
0.0424229
0.0365605
0.0310099
0.0257037
0.0206072
0.0156552
0.0109749
0.00614027
0.00266605
4.49288
4.48552
4.47723
4.46898
4.46075
4.45229
4.44351
4.43446
4.42517
4.41562
4.4058
4.39569
4.3853
4.37461
4.36363
4.35233
4.34071
4.32876
4.31647
4.30384
4.29086
4.27751
4.26379
4.24969
4.2352
4.2203
4.205
4.18928
4.17312
4.15653
4.13948
4.12198
4.10401
4.08555
4.06661
4.04717
4.02722
4.00674
3.98574
3.9642
3.94211
3.91946
3.89625
3.87245
3.84808
3.8231
3.79753
3.77135
3.74455
3.71713
3.68907
3.66038
3.63105
3.60107
3.57044
3.53915
3.50721
3.47461
3.44135
3.40743
3.37285
3.33761
3.30171
3.26517
3.22797
3.19014
3.15166
3.11256
3.07285
3.03252
2.9916
2.9501
2.90804
2.86542
2.82226
2.77859
2.73442
2.68978
2.64468
2.59915
2.55322
2.50691
2.46025
2.41326
2.36599
2.31845
2.27067
2.2227
2.17456
2.1263
2.07793
2.02951
1.98106
1.93263
1.88424
1.83594
1.78776
1.73975
1.69193
1.64435
1.59705
1.55005
1.50339
1.45712
1.41127
1.36587
1.32095
1.27656
1.23271
1.18945
1.14679
1.10478
1.06343
1.02277
0.982829
0.943634
0.905208
0.867566
0.830724
0.794696
0.7595
0.725156
0.691682
0.659089
0.627383
0.596563
0.566634
0.537601
0.509476
0.482265
0.45597
0.430582
0.406092
0.382492
0.359779
0.33795
0.317002
0.296925
0.277702
0.259315
0.241746
0.224983
0.209015
0.193826
0.179398
0.165707
0.152725
0.140428
0.128796
0.11781
0.107449
0.0976904
0.0885032
0.0798511
0.0716976
0.0640134
0.0567785
0.0499767
0.0435833
0.0375548
0.0318351
0.0263633
0.0211201
0.0160399
0.0112656
0.00629729
0.00276833
4.75482
4.74692
4.73803
4.72919
4.72039
4.71133
4.70192
4.69222
4.68226
4.67203
4.66149
4.65065
4.6395
4.62803
4.61624
4.6041
4.59162
4.57879
4.56559
4.55201
4.53806
4.5237
4.50895
4.49378
4.47819
4.46216
4.44569
4.42876
4.41137
4.3935
4.37514
4.35628
4.33692
4.31703
4.29662
4.27566
4.25415
4.23208
4.20944
4.18621
4.16239
4.13797
4.11293
4.08727
4.06098
4.03405
4.00647
3.97823
3.94933
3.91976
3.8895
3.85857
3.82694
3.79462
3.76161
3.72789
3.69347
3.65835
3.62252
3.58599
3.54876
3.51082
3.47219
3.43288
3.39287
3.35219
3.31084
3.26884
3.22618
3.18289
3.13898
3.09447
3.04937
3.0037
2.95748
2.91073
2.86347
2.81573
2.76754
2.71891
2.66989
2.62049
2.57074
2.52069
2.47036
2.41978
2.36899
2.31802
2.26692
2.21572
2.16445
2.11316
2.06189
2.01066
1.95953
1.90852
1.85769
1.80707
1.7567
1.70662
1.65686
1.60747
1.55849
1.50994
1.46187
1.4143
1.36728
1.32084
1.27502
1.22983
1.18532
1.1415
1.0984
1.05606
1.0145
0.97374
0.933805
0.894705
0.856455
0.819074
0.782583
0.747003
0.712345
0.678613
0.645807
0.613929
0.582987
0.552994
0.523959
0.495881
0.468753
0.442564
0.417304
0.392972
0.369569
0.347092
0.325529
0.304862
0.285073
0.266145
0.248068
0.230831
0.214419
0.198811
0.183982
0.169906
0.156562
0.143929
0.131987
0.120715
0.110086
0.10007
0.0906371
0.0817529
0.0733863
0.0655106
0.0581043
0.0511442
0.0445972
0.0384147
0.0325434
0.0269312
0.0215694
0.0163846
0.0115302
0.00642429
0.0028594
5.02022
5.01174
5.0022
4.99275
4.98334
4.97364
4.96356
4.95317
4.9425
4.93153
4.92024
4.90862
4.89666
4.88436
4.8717
4.85868
4.84528
4.8315
4.81732
4.80274
4.78775
4.77232
4.75646
4.74016
4.72339
4.70615
4.68843
4.67022
4.65151
4.63227
4.61251
4.59222
4.57137
4.54996
4.52797
4.5054
4.48224
4.45846
4.43407
4.40905
4.38338
4.35707
4.33009
4.30244
4.27412
4.2451
4.21538
4.18496
4.15383
4.12197
4.08938
4.05606
4.02201
3.98721
3.95167
3.91538
3.87834
3.84055
3.80201
3.76272
3.72269
3.68193
3.64042
3.59819
3.55524
3.51158
3.46722
3.42216
3.37644
3.33006
3.28304
3.23539
3.18713
3.1383
3.0889
3.03897
2.98853
2.9376
2.88622
2.83441
2.78221
2.72965
2.67676
2.62358
2.57014
2.51648
2.46264
2.40865
2.35457
2.30042
2.24624
2.19208
2.13798
2.08398
2.03012
1.97644
1.92299
1.86981
1.81693
1.7644
1.71225
1.66053
1.60928
1.55853
1.50831
1.45867
1.40964
1.36125
1.31354
1.26653
1.22025
1.17472
1.12999
1.08607
1.04299
1.00078
0.959437
0.918983
0.879434
0.840813
0.803142
0.766433
0.730692
0.695916
0.662106
0.629271
0.597424
0.566576
0.536726
0.507868
0.479988
0.453077
0.427134
0.40216
0.378154
0.355104
0.332992
0.311798
0.291506
0.272107
0.25359
0.235941
0.219139
0.203157
0.18797
0.173557
0.159901
0.146981
0.134773
0.123248
0.112377
0.102132
0.0924836
0.0834019
0.0748561
0.0668175
0.0592602
0.0521563
0.045469
0.0391497
0.0331497
0.0274228
0.021965
0.0166898
0.0117611
0.00651351
0.00294738
5.29048
5.28138
5.27114
5.26103
5.25095
5.24056
5.22976
5.21863
5.20719
5.19543
5.18332
5.17086
5.15803
5.14483
5.13124
5.11726
5.10288
5.08807
5.07285
5.05718
5.04106
5.02449
5.00744
4.9899
4.97187
4.95333
4.93427
4.91467
4.89454
4.87384
4.85257
4.83072
4.80828
4.78522
4.76155
4.73725
4.7123
4.68669
4.66042
4.63347
4.60583
4.57748
4.54843
4.51865
4.48814
4.45689
4.42489
4.39213
4.3586
4.32431
4.28923
4.25337
4.21672
4.17928
4.14105
4.10202
4.0622
4.02158
3.98017
3.93796
3.89497
3.85121
3.80667
3.76136
3.71531
3.6685
3.62098
3.57273
3.52379
3.47417
3.42389
3.37298
3.32144
3.26932
3.21662
3.16339
3.10965
3.05543
3.00077
2.94569
2.89024
2.83444
2.77834
2.72197
2.66537
2.60859
2.55165
2.49462
2.43753
2.38041
2.32332
2.26629
2.20937
2.15261
2.09606
2.03974
1.98371
1.928
1.87266
1.81774
1.76327
1.70929
1.65585
1.60297
1.55069
1.49906
1.4481
1.39786
1.34836
1.29962
1.25167
1.20455
1.15829
1.1129
1.06842
1.02485
0.982201
0.940501
0.899767
0.860021
0.821278
0.783542
0.746811
0.711087
0.676376
0.642692
0.610044
0.578435
0.547858
0.518298
0.489747
0.462202
0.435666
0.410135
0.385601
0.362044
0.339445
0.317788
0.297063
0.277261
0.258367
0.240359
0.223211
0.206899
0.191402
0.176703
0.162784
0.149619
0.137177
0.125427
0.114343
0.1039
0.0940707
0.0848247
0.076127
0.0679455
0.0602525
0.0530196
0.0462098
0.0397752
0.0336694
0.0278483
0.022309
0.0169519
0.0119535
0.00656752
0.00303758
5.56497
5.55521
5.54423
5.5334
5.52263
5.5115
5.49993
5.48801
5.47575
5.46315
5.45017
5.43681
5.42305
5.40889
5.39431
5.37931
5.36387
5.34798
5.33163
5.3148
5.29749
5.27968
5.26136
5.24251
5.22313
5.2032
5.18271
5.16164
5.13998
5.11771
5.09483
5.07133
5.04718
5.02237
4.99689
4.97074
4.94389
4.91633
4.88805
4.85904
4.82929
4.79878
4.76751
4.73546
4.70263
4.669
4.63456
4.59932
4.56325
4.52636
4.48864
4.45008
4.41068
4.37045
4.32936
4.28744
4.24466
4.20105
4.1566
4.11132
4.06521
4.01829
3.97056
3.92202
3.87271
3.82262
3.77178
3.7202
3.6679
3.61491
3.56124
3.50692
3.45198
3.39645
3.34035
3.28372
3.22658
3.16898
3.11095
3.05253
2.99375
2.93465
2.87528
2.81567
2.75587
2.69593
2.63589
2.57579
2.51568
2.45559
2.39559
2.33571
2.276