/*--------------------------------*- C++ -*----------------------------------*\
  =========                 |
  \\      /  F ield         | OpenFOAM: The Open Source CFD Toolbox
   \\    /   O peration     | Website:  https://openfoam.org
    \\  /    A nd           | Version:  13
     \\/     M anipulation  |
\*---------------------------------------------------------------------------*/
FoamFile
{
    format      ascii;
    class       surfaceScalarField;
    location    "0.6";
    object      phi;
}
// * * * * * * * * * * * * * * * * * * * * * * * * * * * * * * * * * * * * * //

dimensions      [0 3 -1 0 0 0 0];

internalField   nonuniform List<scalar> 
137229
(
14.3657
-0.000429631
-14.3685
14.3628
-0.000438976
14.3599
-0.000448659
14.357
-0.000458559
14.354
-0.000468743
14.3509
-0.000479247
14.3477
-0.000490012
14.3445
-0.000501134
14.3413
-0.000512555
14.3379
-0.000524312
14.3345
-0.000536381
14.3311
-0.000548858
14.3276
-0.000561632
14.324
-0.000574802
14.3203
-0.000588378
14.3166
-0.000602281
14.3128
-0.000616643
14.3089
-0.000631416
14.3049
-0.000646582
14.3009
-0.000662216
14.2967
-0.000678272
14.2925
-0.000694799
14.2883
-0.000711814
14.2839
-0.000729305
14.2794
-0.000747293
14.2749
-0.000765796
14.2703
-0.000784835
14.2655
-0.000804402
14.2607
-0.00082452
14.2558
-0.000845215
14.2508
-0.000866453
14.2457
-0.000888354
14.2405
-0.000910826
14.2351
-0.000933898
14.2297
-0.000957686
14.2242
-0.000982035
14.2185
-0.0010071
14.2128
-0.00103285
14.2069
-0.00105924
14.2009
-0.00108642
14.1948
-0.0011143
14.1886
-0.00114295
14.1822
-0.00117235
14.1758
-0.00120243
14.1692
-0.00123336
14.1624
-0.00126504
14.1555
-0.00129758
14.1485
-0.00133098
14.1414
-0.00136528
14.1341
-0.00140035
14.1266
-0.00143629
14.119
-0.00147303
14.1113
-0.00151067
14.1033
-0.00154922
14.0953
-0.00158874
14.087
-0.00162925
14.0786
-0.00167068
14.0701
-0.00171305
14.0613
-0.00175627
14.0524
-0.0018004
14.0433
-0.0018455
14.034
-0.00189153
14.0246
-0.00193866
14.0149
-0.00198675
14.005
-0.00203584
13.995
-0.0020859
13.9847
-0.00213683
13.9742
-0.00218868
13.9635
-0.00224147
13.9526
-0.00229522
13.9415
-0.00234995
13.9301
-0.0024056
13.9185
-0.0024622
13.9067
-0.0025197
13.8947
-0.00257801
13.8823
-0.00263713
13.8698
-0.0026971
13.8569
-0.00275778
13.8439
-0.00281926
13.8305
-0.00288149
13.8169
-0.00294443
13.803
-0.00300802
13.7888
-0.00307222
13.7743
-0.00313691
13.7595
-0.00320208
13.7444
-0.00326764
13.729
-0.00333365
13.7133
-0.00340001
13.6972
-0.00346673
13.6809
-0.00353353
13.6641
-0.00360033
13.6471
-0.00366705
13.6297
-0.00373358
13.6119
-0.0038001
13.5938
-0.00386646
13.5752
-0.00393261
13.5563
-0.00399827
13.5371
-0.0040632
13.5174
-0.00412712
13.4973
-0.00419004
13.4767
-0.00425202
13.4558
-0.00431312
13.4344
-0.00437325
13.4126
-0.00443216
13.3903
-0.00448933
13.3676
-0.00454446
13.3443
-0.00459729
13.3206
-0.00464796
13.2964
-0.00469667
13.2717
-0.00474337
13.2465
-0.00478785
13.2207
-0.00482953
13.1944
-0.00486776
13.1676
-0.00490221
13.1402
-0.00493286
13.1122
-0.00496004
13.0836
-0.00498378
13.0544
-0.00500395
13.0246
-0.00501999
12.9942
-0.0050311
12.9631
-0.0050368
12.9314
-0.00503699
12.899
-0.00503181
12.8659
-0.0050214
12.8321
-0.00500553
12.7976
-0.00498367
12.7624
-0.0049551
12.7264
-0.00491933
12.6897
-0.00487629
12.6522
-0.00482597
12.6138
-0.0047684
12.5747
-0.00470311
12.5347
-0.00462946
12.4939
-0.0045469
12.4522
-0.00445498
12.4096
-0.0043538
12.366
-0.00424346
12.3216
-0.00412383
12.2762
-0.00399409
12.2298
-0.0038532
12.1824
-0.00370032
12.134
-0.00353528
12.0846
-0.00335861
12.0341
-0.00317103
11.9825
-0.00297253
11.9298
-0.00276174
11.8759
-0.00253638
11.8209
-0.00229468
11.7647
-0.00203668
11.7073
-0.00176431
11.6486
-0.00148003
11.5886
-0.00118422
11.5274
-0.000873822
11.4648
-0.000543533
11.4008
-0.000189571
11.3355
0.000186833
11.2687
0.000579339
11.2004
0.00098158
11.1307
0.00139314
11.0594
0.00182304
10.9866
0.00228421
10.9122
0.00278372
10.8361
0.00331472
10.7584
0.00385951
10.679
0.00440205
10.5978
0.00494409
0.00553162
13.6793
0.00212869
-13.6819
13.6767
0.00216964
13.674
0.00221138
13.6713
0.00225392
13.6686
0.00229725
13.6657
0.0023414
13.6629
0.00238636
13.6599
0.00243217
13.6569
0.00247885
13.6539
0.00252636
13.6508
0.00257479
13.6476
0.00262413
13.6444
0.0026744
13.6411
0.00272557
13.6377
0.0027777
13.6343
0.00283083
13.6308
0.00288494
13.6272
0.00294005
13.6236
0.0029962
13.6198
0.00305341
13.6161
0.00311167
13.6122
0.00317102
13.6082
0.00323149
13.6042
0.00329304
13.6001
0.00335583
13.5959
0.0034197
13.5917
0.00348486
13.5873
0.00355119
13.5829
0.00361876
13.5783
0.00368761
13.5737
0.00375777
13.569
0.00382924
13.5642
0.00390206
13.5593
0.00397627
13.5543
0.00405186
13.5491
0.00412888
13.5439
0.00420742
13.5386
0.00428742
13.5332
0.00436895
13.5276
0.00445206
13.522
0.00453671
13.5162
0.00462301
13.5103
0.00471101
13.5043
0.00480072
13.4982
0.0048922
13.492
0.00498546
13.4856
0.00508052
13.4791
0.00517741
13.4724
0.00527622
13.4657
0.00537701
13.4587
0.00547983
13.4517
0.00558476
13.4445
0.00569184
13.4371
0.00580103
13.4296
0.00591243
13.422
0.00602606
13.4142
0.00614201
13.4062
0.00626043
13.3981
0.00638133
13.3897
0.00650481
13.3813
0.00663096
13.3726
0.00675974
13.3638
0.00689125
13.3548
0.00702555
13.3456
0.00716277
13.3362
0.00730301
13.3266
0.00744637
13.3168
0.00759298
13.3068
0.00774293
13.2967
0.00789623
13.2862
0.008053
13.2756
0.00821337
13.2648
0.00837742
13.2537
0.00854532
13.2424
0.0087172
13.2309
0.00889321
13.2191
0.00907343
13.2071
0.00925805
13.1948
0.00944722
13.1823
0.00964102
13.1695
0.00983964
13.1565
0.0100432
13.1432
0.0102519
13.1296
0.0104659
13.1157
0.0106855
13.1015
0.0109109
13.087
0.0111421
13.0722
0.0113795
13.0572
0.011623
13.0417
0.0118731
13.026
0.01213
13.01
0.012394
12.9936
0.0126654
12.9768
0.0129442
12.9597
0.0132307
12.9423
0.0135251
12.9244
0.0138277
12.9062
0.014139
12.8876
0.0144596
12.8687
0.0147894
12.8493
0.0151289
12.8295
0.0154781
12.8093
0.0158372
12.7886
0.0162066
12.7676
0.0165871
12.746
0.0169792
12.7241
0.0173834
12.7016
0.0177999
12.6787
0.0182287
12.6553
0.01867
12.6314
0.0191242
12.6069
0.019592
12.582
0.0200744
12.5565
0.0205722
12.5305
0.0210857
12.5039
0.0216149
12.4768
0.0221597
12.4491
0.0227206
12.4207
0.0232984
12.3918
0.0238941
12.3623
0.0245088
12.3321
0.0251431
12.3013
0.0257971
12.2698
0.0264708
12.2376
0.0271647
12.2047
0.0278793
12.1712
0.028616
12.1369
0.0293758
12.1018
0.0301593
12.066
0.030967
12.0295
0.0317991
11.9921
0.0326563
11.9539
0.0335392
11.9149
0.0344491
11.8751
0.0353868
11.8344
0.0363531
11.7928
0.0373484
11.7503
0.0383735
11.7069
0.039429
11.6625
0.0405164
11.6172
0.0416368
11.5709
0.042791
11.5235
0.0439794
11.4751
0.0452022
11.4257
0.0464598
11.3752
0.0477541
11.3236
0.0490874
11.2708
0.0504617
11.2169
0.0518777
11.1618
0.0533345
11.1055
0.0548306
11.0479
0.0563666
10.9891
0.0579458
10.929
0.0595739
10.8676
0.0612549
10.8048
0.0629883
10.7406
0.0647687
10.675
0.0665908
10.6079
0.0684555
10.5393
0.0703724
10.4693
0.0723552
10.3976
0.0744112
10.3244
0.0765336
10.2496
0.0787055
10.1731
0.0809123
10.0949
0.0831591
0.0854914
13.0211
0.00446468
-13.0234
13.0187
0.00455232
13.0163
0.0046417
13.0138
0.00473287
13.0113
0.00482587
13.0087
0.0049207
13.006
0.00501741
13.0034
0.00511611
13.0006
0.00521672
12.9978
0.00531936
12.995
0.00542405
12.9921
0.00553084
12.9891
0.00563973
12.9861
0.00575085
12.983
0.00586414
12.9799
0.0059797
12.9766
0.00609762
12.9734
0.00621785
12.97
0.0063405
12.9666
0.00646565
12.9631
0.00659323
12.9596
0.00672346
12.9559
0.00685621
12.9522
0.00699169
12.9485
0.00712987
12.9446
0.00727086
12.9407
0.00741463
12.9367
0.00756135
12.9326
0.00771099
12.9284
0.00786366
12.9242
0.0080194
12.9198
0.00817834
12.9154
0.00834046
12.9108
0.00850585
12.9062
0.00867461
12.9015
0.00884676
12.8967
0.00902249
12.8918
0.00920173
12.8867
0.00938468
12.8816
0.00957135
12.8764
0.00976178
12.8711
0.00995614
12.8656
0.0101545
12.8601
0.0103569
12.8544
0.0105635
12.8486
0.0107744
12.8427
0.0109897
12.8367
0.0112093
12.8305
0.0114335
12.8242
0.0116624
12.8178
0.011896
12.8113
0.0121346
12.8046
0.0123782
12.7978
0.0126269
12.7908
0.0128808
12.7837
0.01314
12.7764
0.0134047
12.769
0.013675
12.7614
0.0139511
12.7537
0.0142332
12.7458
0.0145213
12.7377
0.0148156
12.7295
0.0151163
12.7211
0.0154233
12.7125
0.0157371
12.7038
0.0160576
12.6949
0.0163853
12.6857
0.0167201
12.6764
0.0170624
12.6669
0.0174123
12.6572
0.0177699
12.6473
0.0181355
12.6371
0.0185092
12.6268
0.0188913
12.6162
0.019282
12.6054
0.0196817
12.5944
0.0200905
12.5832
0.0205087
12.5717
0.0209366
12.5599
0.0213742
12.548
0.0218221
12.5357
0.0222802
12.5232
0.0227492
12.5105
0.0232291
12.4974
0.0237206
12.4841
0.0242237
12.4705
0.0247389
12.4566
0.0252662
12.4424
0.0258062
12.428
0.0263592
12.4132
0.0269257
12.398
0.0275062
12.3826
0.028101
12.3668
0.0287105
12.3507
0.0293349
12.3343
0.0299745
12.3175
0.03063
12.3003
0.031302
12.2828
0.0319911
12.2649
0.032698
12.2466
0.0334228
12.2279
0.0341658
12.2088
0.0349273
12.1893
0.0357081
12.1694
0.036509
12.149
0.037331
12.1282
0.0381747
12.107
0.0390406
12.0853
0.0399287
12.0631
0.0408393
12.0405
0.0417733
12.0173
0.0427316
11.9937
0.0437156
11.9696
0.0447263
11.9449
0.0457642
11.9197
0.0468296
11.8939
0.0479223
11.8676
0.0490434
11.8407
0.0501937
11.8132
0.0513751
11.7851
0.0525887
11.7564
0.0538356
11.7271
0.0551159
11.6971
0.0564298
11.6665
0.0577781
11.6353
0.059162
11.6033
0.060583
11.5706
0.0620427
11.5372
0.0635422
11.5031
0.0650822
11.4683
0.066663
11.4326
0.0682857
11.3962
0.0699514
11.359
0.0716617
11.321
0.0734181
11.2821
0.0752219
11.2424
0.077074
11.2018
0.0789754
11.1603
0.0809274
11.1179
0.0829314
11.0745
0.084989
11.0302
0.0871016
10.9849
0.0892703
10.9386
0.0914961
10.8913
0.0937804
10.8429
0.0961253
10.7935
0.0985334
10.7429
0.101006
10.6913
0.103545
10.6384
0.10615
10.5845
0.108821
10.5293
0.11156
10.4728
0.114372
10.4151
0.117262
10.3562
0.120232
10.2959
0.123282
10.2342
0.126408
10.1712
0.129607
10.1068
0.132882
10.0409
0.136247
9.97356
0.139712
9.90469
0.143283
9.83428
0.14695
9.76228
0.150699
9.68867
0.15452
9.61341
0.158423
0.162461
12.3967
0.00660088
-12.3989
12.3945
0.00673192
12.3923
0.00686558
12.3901
0.00700204
12.3877
0.00714124
12.3854
0.00728328
12.383
0.00742822
12.3805
0.00757612
12.378
0.00772702
12.3754
0.00788106
12.3728
0.00803818
12.3701
0.00819857
12.3674
0.0083622
12.3646
0.0085292
12.3618
0.00869958
12.3589
0.00887351
12.356
0.00905096
12.353
0.00923209
12.3499
0.00941688
12.3467
0.00960549
12.3435
0.00979801
12.3403
0.00999441
12.3369
0.0101949
12.3335
0.0103995
12.33
0.0106083
12.3265
0.0108215
12.3229
0.0110389
12.3192
0.011261
12.3154
0.0114876
12.3115
0.0117188
12.3076
0.0119549
12.3036
0.0121958
12.2995
0.0124417
12.2953
0.0126928
12.291
0.012949
12.2866
0.0132105
12.2822
0.0134776
12.2776
0.0137501
12.273
0.0140284
12.2683
0.0143124
12.2634
0.0146024
12.2585
0.0148984
12.2534
0.0152006
12.2483
0.0155093
12.243
0.0158243
12.2376
0.0161461
12.2322
0.0164746
12.2266
0.0168099
12.2208
0.0171524
12.215
0.017502
12.209
0.0178592
12.203
0.0182239
12.1967
0.0185965
12.1904
0.0189769
12.1839
0.0193655
12.1773
0.0197623
12.1705
0.0201676
12.1636
0.0205816
12.1566
0.0210046
12.1493
0.0214367
12.142
0.0218783
12.1345
0.0223293
12.1268
0.0227902
12.119
0.023261
12.111
0.0237421
12.1028
0.0242336
12.0944
0.024736
12.0859
0.0252496
12.0772
0.0257745
12.0683
0.026311
12.0592
0.0268594
12.0499
0.0274199
12.0404
0.0279929
12.0307
0.0285787
12.0209
0.0291776
12.0107
0.0297902
12.0004
0.0304165
11.9899
0.0310572
11.9791
0.0317123
11.9681
0.0323824
11.9568
0.0330676
11.9454
0.0337686
11.9336
0.0344857
11.9216
0.0352196
11.9094
0.0359704
11.8969
0.0367388
11.8841
0.0375249
11.871
0.0383294
11.8577
0.0391526
11.844
0.0399952
11.8301
0.0408579
11.8159
0.0417413
11.8013
0.0426457
11.7865
0.0435716
11.7713
0.0445195
11.7558
0.0454898
11.7399
0.0464834
11.7237
0.0475012
11.7072
0.048544
11.6902
0.0496124
11.673
0.0507069
11.6553
0.0518276
11.6372
0.0529755
11.6188
0.0541512
11.6
0.0553561
11.5807
0.0565912
11.561
0.0578575
11.5409
0.0591553
11.5203
0.0604849
11.4993
0.0618471
11.4779
0.0632426
11.4559
0.0646731
11.4335
0.0661401
11.4106
0.0676448
11.3872
0.0691879
11.3632
0.0707695
11.3387
0.0723901
11.3137
0.0740509
11.2882
0.0757534
11.2621
0.0774996
11.2354
0.0792913
11.2081
0.081129
11.1802
0.0830135
11.1516
0.084945
11.1225
0.0869248
11.0927
0.0889546
11.0623
0.0910367
11.0311
0.0931729
10.9993
0.0953643
10.9668
0.0976116
10.9335
0.0999157
10.8995
0.102278
10.8648
0.1047
10.8293
0.107184
10.7929
0.109733
10.7558
0.112347
10.7179
0.115028
10.6791
0.117777
10.6394
0.120596
10.5988
0.123486
10.5574
0.126451
10.515
0.129492
10.4716
0.13261
10.4273
0.135808
10.382
0.139086
10.3357
0.142448
10.2883
0.145896
10.2399
0.149433
10.1904
0.15306
10.1398
0.156779
10.088
0.160589
10.0351
0.164495
9.98094
0.168501
9.92559
0.172613
9.86899
0.176833
9.81111
0.18116
9.75193
0.185591
9.69141
0.190126
9.62952
0.194772
9.56623
0.199541
9.50149
0.204445
9.43529
0.209485
9.36759
0.214651
9.29836
0.219929
9.22756
0.225317
9.15515
0.230832
0.236526
11.8011
0.00855802
-11.803
11.7991
0.0087293
11.7971
0.00890417
11.795
0.00908262
11.7928
0.00926478
11.7907
0.00945067
11.7885
0.00964044
11.7862
0.00983416
11.7839
0.0100318
11.7816
0.0102337
11.7792
0.0104396
11.7767
0.0106499
11.7742
0.0108645
11.7716
0.0110836
11.769
0.0113072
11.7664
0.0115355
11.7637
0.0117685
11.7609
0.0120064
11.7581
0.0122492
11.7552
0.0124971
11.7522
0.0127501
11.7492
0.0130085
11.7461
0.0132722
11.743
0.0135414
11.7398
0.0138163
11.7365
0.0140969
11.7331
0.0143834
11.7297
0.0146758
11.7262
0.0149744
11.7227
0.0152793
11.719
0.0155906
11.7153
0.0159084
11.7115
0.0162329
11.7077
0.0165642
11.7037
0.0169025
11.6997
0.0172479
11.6956
0.0176006
11.6913
0.0179608
11.687
0.0183286
11.6827
0.0187041
11.6782
0.0190876
11.6736
0.0194792
11.6689
0.0198791
11.6641
0.0202876
11.6593
0.0207047
11.6543
0.0211308
11.6492
0.0215659
11.644
0.0220103
11.6387
0.0224642
11.6332
0.0229277
11.6277
0.0234012
11.622
0.023885
11.6163
0.0243792
11.6103
0.024884
11.6043
0.0253997
11.5981
0.0259264
11.5919
0.0264645
11.5854
0.0270143
11.5788
0.0275761
11.5721
0.0281502
11.5653
0.0287368
11.5583
0.0293363
11.5511
0.0299487
11.5438
0.0305745
11.5363
0.031214
11.5287
0.0318677
11.5209
0.0325358
11.5129
0.0332187
11.5048
0.0339168
11.4965
0.0346304
11.488
0.0353598
11.4793
0.0361054
11.4704
0.0368676
11.4613
0.0376469
11.4521
0.0384438
11.4426
0.0392587
11.4329
0.040092
11.423
0.0409441
11.4129
0.0418155
11.4026
0.0427067
11.3921
0.0436182
11.3813
0.0445505
11.3703
0.0455042
11.359
0.0464799
11.3475
0.0474782
11.3357
0.0484993
11.3237
0.0495441
11.3114
0.050613
11.2989
0.0517068
11.286
0.0528261
11.2729
0.0539718
11.2595
0.0551446
11.2458
0.0563449
11.2318
0.0575734
11.2175
0.0588307
11.2029
0.0601175
11.1879
0.0614349
11.1726
0.0627839
11.157
0.0641654
11.1411
0.0655803
11.1247
0.0670289
11.1081
0.0685119
11.091
0.0700302
11.0736
0.071585
11.0557
0.0731776
11.0375
0.0748094
11.0189
0.0764813
10.9999
0.0781939
10.9804
0.0799477
10.9605
0.0817436
10.9402
0.083583
10.9194
0.0854676
10.8981
0.0873992
10.8764
0.0893791
10.8542
0.091408
10.8314
0.0934864
10.8082
0.0956151
10.7845
0.0977957
10.7602
0.10003
10.7354
0.102321
10.71
0.104669
10.684
0.107077
10.6575
0.109543
10.6304
0.11207
10.6027
0.114659
10.5743
0.117312
10.5453
0.120032
10.5157
0.122821
10.4853
0.12568
10.4543
0.12861
10.4226
0.131612
10.3902
0.134688
10.3571
0.137841
10.3232
0.141073
10.2885
0.144388
10.2531
0.147785
10.2169
0.151267
10.1798
0.154834
10.1419
0.15849
10.1032
0.162238
10.0635
0.16608
10.023
0.170019
9.98156
0.174057
9.93917
0.178194
9.89583
0.182434
9.8515
0.186779
9.80616
0.191233
9.75979
0.1958
9.71237
0.200482
9.66387
0.205279
9.61426
0.210193
9.56353
0.215229
9.51164
0.220391
9.45857
0.225686
9.40428
0.231117
9.34876
0.236681
9.29198
0.242378
9.23389
0.248209
9.17448
0.254183
9.11371
0.260315
9.05154
0.266613
8.98795
0.273076
8.92291
0.279693
8.85638
0.286455
8.78833
0.293364
8.71872
0.300447
0.307749
11.2346
0.0103496
-11.2364
11.2327
0.0105584
11.2309
0.0107716
11.229
0.0109892
11.227
0.0112114
11.225
0.0114382
11.223
0.0116697
11.2209
0.0119061
11.2188
0.0121475
11.2166
0.0123939
11.2144
0.0126455
11.2122
0.0129023
11.2099
0.0131645
11.2075
0.0134322
11.2051
0.0137056
11.2027
0.0139847
11.2002
0.0142697
11.1976
0.0145607
11.195
0.0148577
11.1924
0.0151611
11.1896
0.0154708
11.1869
0.0157871
11.184
0.0161101
11.1811
0.0164398
11.1782
0.0167765
11.1751
0.0171204
11.1721
0.0174716
11.1689
0.0178301
11.1657
0.0181963
11.1624
0.0185702
11.159
0.0189521
11.1556
0.019342
11.1521
0.0197403
11.1485
0.020147
11.1448
0.0205624
11.1411
0.0209866
11.1373
0.0214199
11.1334
0.0218625
11.1294
0.0223144
11.1253
0.0227761
11.1212
0.0232476
11.1169
0.0237292
11.1126
0.0242211
11.1081
0.0247236
11.1036
0.025237
11.099
0.0257613
11.0942
0.026297
11.0894
0.0268441
11.0845
0.027403
11.0794
0.0279741
11.0743
0.0285575
11.069
0.0291536
11.0636
0.0297627
11.0581
0.030385
11.0525
0.0310207
11.0468
0.0316702
11.0409
0.032334
11.0349
0.0330121
11.0288
0.0337053
11.0225
0.0344137
11.0161
0.0351376
11.0096
0.0358775
11.0029
0.0366335
10.996
0.0374062
10.9891
0.038196
10.9819
0.0390032
10.9746
0.0398284
10.9672
0.040672
10.9596
0.0415345
10.9518
0.042416
10.9438
0.0433173
10.9357
0.0442387
10.9274
0.0451808
10.9189
0.046144
10.9102
0.047129
10.9013
0.0481363
10.8922
0.0491663
10.883
0.0502197
10.8735
0.051297
10.8638
0.0523988
10.8539
0.0535257
10.8437
0.0546785
10.8334
0.0558576
10.8228
0.0570638
10.812
0.0582978
10.8009
0.0595603
10.7896
0.0608518
10.7781
0.0621733
10.7662
0.0635254
10.7542
0.0649091
10.7418
0.0663251
10.7292
0.0677744
10.7163
0.0692575
10.7031
0.0707753
10.6896
0.0723286
10.6758
0.0739184
10.6617
0.0755458
10.6472
0.0772118
10.6325
0.0789178
10.6174
0.0806644
10.602
0.0824524
10.5862
0.0842826
10.5701
0.0861562
10.5536
0.0880746
10.5367
0.0900392
10.5195
0.0920516
10.5018
0.0941127
10.4838
0.0962235
10.4654
0.0983846
10.4465
0.100597
10.4272
0.102863
10.4075
0.105184
10.3874
0.107563
10.3667
0.109999
10.3457
0.112495
10.3241
0.115051
10.302
0.117669
10.2795
0.12035
10.2564
0.123097
10.2328
0.125912
10.2087
0.128796
10.184
0.131752
10.1588
0.134779
10.133
0.137879
10.1066
0.141055
10.0796
0.14431
10.052
0.147645
10.0237
0.151063
9.99484
0.154566
9.9653
0.158153
9.93508
0.161828
9.90418
0.165594
9.87257
0.169452
9.84023
0.173407
9.80716
0.17746
9.77333
0.181612
9.73873
0.185866
9.70334
0.190224
9.66714
0.194689
9.63012
0.199266
9.59224
0.203956
9.5535
0.208763
9.51387
0.213687
9.47333
0.218732
9.43186
0.2239
9.38944
0.229196
9.34605
0.234624
9.30167
0.240188
9.25626
0.245889
9.20981
0.251728
9.1623
0.257709
9.11369
0.263836
9.06396
0.270118
9.01309
0.276558
8.96105
0.283159
8.90781
0.289921
8.85334
0.296842
8.79762
0.303927
8.74062
0.311189
8.68229
0.31864
8.62262
0.326287
8.56157
0.334127
8.49911
0.342148
8.43522
0.350347
8.36985
0.358733
8.30296
0.367338
0.376197
10.6949
0.011993
-10.6965
10.6932
0.0122366
10.6915
0.0124855
10.6897
0.0127396
10.6879
0.012999
10.6861
0.0132639
10.6842
0.0135344
10.6823
0.0138106
10.6804
0.0140927
10.6784
0.0143806
10.6764
0.0146747
10.6743
0.014975
10.6722
0.0152817
10.67
0.0155948
10.6678
0.0159146
10.6656
0.0162412
10.6632
0.0165747
10.6609
0.0169153
10.6585
0.0172631
10.656
0.0176183
10.6535
0.0179811
10.651
0.0183516
10.6483
0.01873
10.6457
0.0191164
10.6429
0.0195111
10.6401
0.0199142
10.6373
0.0203259
10.6344
0.0207464
10.6314
0.0211759
10.6283
0.0216145
10.6252
0.0220626
10.622
0.0225203
10.6188
0.0229878
10.6155
0.0234653
10.6121
0.023953
10.6086
0.0244513
10.6051
0.0249603
10.6015
0.0254802
10.5978
0.0260113
10.594
0.0265539
10.5901
0.0271082
10.5862
0.0276744
10.5822
0.0282529
10.578
0.028844
10.5738
0.0294479
10.5695
0.0300648
10.5651
0.0306952
10.5606
0.0313392
10.556
0.0319972
10.5513
0.0326695
10.5465
0.0333565
10.5416
0.0340587
10.5366
0.0347761
10.5315
0.0355093
10.5263
0.0362584
10.5209
0.037024
10.5154
0.0378064
10.5098
0.0386059
10.5041
0.0394232
10.4983
0.0402586
10.4923
0.0411124
10.4862
0.0419851
10.4799
0.0428771
10.4736
0.0437889
10.467
0.0447209
10.4604
0.0456737
10.4536
0.0466478
10.4466
0.0476437
10.4395
0.0486619
10.4322
0.0497029
10.4247
0.0507672
10.4171
0.0518555
10.4093
0.0529683
10.4013
0.0541063
10.3932
0.0552699
10.3849
0.05646
10.3764
0.0576771
10.3677
0.0589219
10.3588
0.060195
10.3497
0.0614973
10.3404
0.0628293
10.3309
0.0641919
10.3211
0.0655857
10.3112
0.0670115
10.301
0.0684703
10.2906
0.0699628
10.28
0.0714898
10.2691
0.0730521
10.258
0.0746508
10.2466
0.0762867
10.235
0.0779608
10.2231
0.0796741
10.2109
0.0814276
10.1984
0.083222
10.1857
0.0850583
10.1727
0.0869378
10.1594
0.0888617
10.1458
0.0908312
10.1318
0.0928476
10.1176
0.0949118
10.103
0.0970248
10.0881
0.0991878
10.0729
0.101402
10.0573
0.103669
10.0413
0.10599
10.025
0.108367
10.0083
0.110802
9.99123
0.113295
9.97377
0.115847
9.9559
0.11846
9.93763
0.121135
9.91894
0.123876
9.89982
0.126683
9.88026
0.129559
9.86025
0.132504
9.83978
0.135519
9.81885
0.138607
9.79743
0.14177
9.77551
0.14501
9.7531
0.148328
9.73017
0.151729
9.70671
0.155211
9.68271
0.158778
9.65815
0.162431
9.63304
0.166174
9.60734
0.170007
9.58105
0.173935
9.55415
0.177959
9.52664
0.18208
9.49849
0.186302
9.46969
0.190627
9.44023
0.195058
9.41008
0.199597
9.37924
0.204247
9.34769
0.209012
9.31541
0.213892
9.28239
0.218891
9.2486
0.224013
9.21403
0.229261
9.17865
0.234637
9.14247
0.240145
9.10544
0.245788
9.06756
0.251568
9.0288
0.257489
8.98915
0.263555
8.94857
0.269771
8.90706
0.27614
8.86458
0.282665
8.82112
0.289349
8.77665
0.296194
8.73116
0.303207
8.6846
0.310391
8.63696
0.317755
8.58822
0.325302
8.53835
0.333034
8.48732
0.340951
8.4351
0.349056
8.38167
0.357357
8.327
0.365865
8.27105
0.374591
8.21379
0.383541
8.15521
0.39271
8.09527
0.402089
8.03393
0.41168
7.97117
0.4215
7.90693
0.43158
0.441942
10.1811
0.0134991
-10.1826
10.1795
0.0137752
10.178
0.0140573
10.1764
0.0143454
10.1747
0.0146396
10.173
0.0149401
10.1713
0.0152469
10.1696
0.0155602
10.1678
0.0158802
10.166
0.0162071
10.1641
0.0165409
10.1622
0.0168818
10.1603
0.01723
10.1583
0.0175856
10.1562
0.0179489
10.1541
0.0183198
10.152
0.0186988
10.1499
0.0190858
10.1476
0.0194811
10.1454
0.0198848
10.1431
0.0202973
10.1407
0.0207185
10.1383
0.0211488
10.1358
0.0215884
10.1333
0.0220374
10.1307
0.022496
10.128
0.0229646
10.1254
0.0234432
10.1226
0.0239321
10.1198
0.0244315
10.1169
0.0249418
10.114
0.025463
10.1109
0.0259955
10.1079
0.0265396
10.1047
0.0270954
10.1015
0.0276632
10.0982
0.0282433
10.0949
0.0288361
10.0915
0.0294417
10.0879
0.0300605
10.0844
0.0306926
10.0807
0.0313386
10.0769
0.0319986
10.0731
0.0326731
10.0692
0.0333623
10.0652
0.0340665
10.0611
0.0347861
10.0569
0.0355215
10.0527
0.0362729
10.0483
0.0370409
10.0438
0.0378257
10.0392
0.0386279
10.0346
0.0394477
10.0298
0.0402856
10.0249
0.0411419
10.0199
0.042017
10.0148
0.0429116
10.0096
0.043826
10.0043
0.0447606
9.9988
0.0457162
9.99322
0.0466929
9.98751
0.0476914
9.98168
0.0487122
9.97571
0.0497556
9.96961
0.0508224
9.96337
0.0519131
9.95699
0.0530283
9.95047
0.0541686
9.94379
0.0553346
9.93697
0.0565269
9.92999
0.057746
9.92285
0.0589927
9.91555
0.0602677
9.90809
0.0615715
9.90045
0.0629049
9.89265
0.0642687
9.88466
0.0656637
9.87649
0.0670906
9.86814
0.0685501
9.85959
0.0700431
9.85085
0.0715702
9.84191
0.0731325
9.83276
0.0747308
9.82341
0.076366
9.81384
0.0780389
9.80405
0.0797508
9.79404
0.0815023
9.7838
0.0832944
9.77332
0.0851283
9.7626
0.0870049
9.75164
0.0889254
9.74042
0.090891
9.72894
0.0929026
9.71721
0.0949613
9.7052
0.0970683
9.69291
0.0992248
9.68034
0.101432
9.66748
0.103692
9.65432
0.106005
9.64086
0.108374
9.62708
0.110798
9.61299
0.11328
9.59857
0.11582
9.58382
0.118421
9.56873
0.121084
9.55328
0.123811
9.53748
0.126604
9.52132
0.129463
9.50477
0.13239
9.48784
0.135387
9.47052
0.138456
9.4528
0.141599
9.43467
0.144818
9.41611
0.148115
9.39712
0.151491
9.37769
0.154949
9.35781
0.158489
9.33747
0.162115
9.31665
0.165828
9.29534
0.169631
9.27355
0.173527
9.25124
0.177517
9.22841
0.181604
9.20506
0.185789
9.18115
0.190076
9.15669
0.194467
9.13167
0.198964
9.10605
0.203571
9.07984
0.208289
9.05302
0.213123
9.02558
0.218074
8.99749
0.223146
8.96875
0.22834
8.93933
0.23366
8.90924
0.239109
8.87844
0.244692
8.84692
0.250411
8.81466
0.25627
8.78165
0.262271
8.74787
0.268418
8.7133
0.274714
8.67792
0.281163
8.64172
0.287769
8.60468
0.294537
8.56676
0.30147
8.52796
0.308572
8.48825
0.315848
8.44762
0.3233
8.40603
0.330933
8.36347
0.338751
8.31992
0.34676
8.27535
0.354965
8.22973
0.363373
8.18304
0.371987
8.13527
0.380811
8.08637
0.389845
8.03633
0.399096
7.98512
0.408571
7.9327
0.418283
7.87905
0.42824
7.82414
0.438447
7.76795
0.448899
7.71045
0.459592
7.6516
0.470533
7.59136
0.481741
7.52969
0.493246
0.505058
9.69187
0.0148813
-9.69325
9.69045
0.0151878
9.68901
0.0155009
9.68754
0.0158207
9.68603
0.0161473
9.68449
0.0164809
9.68291
0.0168216
9.6813
0.0171697
9.67966
0.0175251
9.67798
0.0178883
9.67626
0.0182592
9.6745
0.018638
9.67271
0.0190251
9.67087
0.0194204
9.669
0.0198242
9.66708
0.0202367
9.66512
0.0206581
9.66312
0.0210886
9.66107
0.0215283
9.65898
0.0219776
9.65684
0.0224365
9.65465
0.0229053
9.65242
0.0233843
9.65013
0.0238736
9.6478
0.0243736
9.64541
0.0248843
9.64297
0.0254061
9.64047
0.0259392
9.63792
0.0264839
9.63531
0.0270404
9.63264
0.027609
9.62991
0.0281899
9.62713
0.0287835
9.62428
0.02939
9.62136
0.0300098
9.61838
0.030643
9.61534
0.0312901
9.61222
0.0319513
9.60903
0.0326269
9.60578
0.0333174
9.60245
0.0340229
9.59904
0.0347439
9.59556
0.0354807
9.592
0.0362337
9.58836
0.0370032
9.58464
0.0377897
9.58083
0.0385935
9.57693
0.0394149
9.57295
0.0402545
9.56888
0.0411126
9.56472
0.0419897
9.56046
0.0428863
9.5561
0.0438028
9.55165
0.0447395
9.54709
0.0456971
9.54244
0.0466758
9.53767
0.0476763
9.5328
0.0486992
9.52781
0.0497449
9.52272
0.050814
9.5175
0.0519071
9.51217
0.0530246
9.50671
0.0541672
9.50113
0.0553354
9.49543
0.0565298
9.48959
0.0577512
9.48362
0.0590001
9.47751
0.0602773
9.47126
0.0615835
9.46487
0.0629192
9.45833
0.0642852
9.45164
0.0656822
9.44479
0.067111
9.43779
0.0685723
9.43063
0.0700671
9.4233
0.0715961
9.41581
0.0731601
9.40814
0.0747601
9.40029
0.0763968
9.39226
0.0780712
9.38405
0.079784
9.37565
0.0815365
9.36705
0.0833294
9.35825
0.085164
9.34925
0.0870412
9.34004
0.088962
9.33061
0.0909275
9.32097
0.0929387
9.3111
0.0949969
9.301
0.0971032
9.29067
0.099259
9.28009
0.101465
9.26927
0.103724
9.2582
0.106035
9.24686
0.1084
9.23527
0.110822
9.2234
0.1133
9.21125
0.115837
9.19882
0.118435
9.1861
0.121094
9.17309
0.123817
9.15976
0.126603
9.14613
0.129456
9.13217
0.132377
9.11789
0.135367
9.10327
0.13843
9.08831
0.141566
9.07299
0.144776
9.05732
0.148064
9.04128
0.151429
9.02486
0.154875
9.00805
0.158404
8.99085
0.162018
8.97325
0.16572
8.95523
0.169511
8.93678
0.173393
8.91791
0.177367
8.89858
0.181437
8.87881
0.185605
8.85856
0.189874
8.83784
0.194246
8.81663
0.198725
8.79493
0.203312
8.77271
0.20801
8.74996
0.21282
8.72668
0.217746
8.70286
0.222791
8.67847
0.227959
8.65351
0.233253
8.62795
0.238676
8.6018
0.24423
8.57503
0.249917
8.54762
0.255741
8.51958
0.261706
8.49087
0.267817
8.46149
0.274077
8.43141
0.28049
8.40062
0.287058
8.36911
0.293784
8.33685
0.300672
8.30384
0.307727
8.27005
0.314955
8.23546
0.322358
8.20005
0.329943
8.16381
0.337711
8.12672
0.345667
8.08875
0.353816
8.04988
0.362163
8.01011
0.370713
7.96939
0.37947
7.92771
0.388439
7.88504
0.397628
7.84138
0.407042
7.79668
0.416686
7.75092
0.426564
7.70409
0.436678
7.65615
0.447034
7.60708
0.457643
7.55685
0.468515
7.50543
0.47966
7.4528
0.49108
7.39892
0.502772
7.34378
0.514736
7.28733
0.526982
7.22954
0.539531
7.17038
0.552409
0.565619
9.22608
0.0161493
-9.22735
9.22479
0.0164841
9.22346
0.0168261
9.22211
0.0171755
9.22072
0.0175323
9.2193
0.0178969
9.21786
0.0182693
9.21638
0.0186497
9.21486
0.0190383
9.21332
0.0194354
9.21173
0.019841
9.21012
0.0202553
9.20846
0.0206786
9.20677
0.0211111
9.20504
0.0215529
9.20328
0.0220043
9.20147
0.0224654
9.19962
0.0229366
9.19773
0.023418
9.1958
0.0239098
9.19382
0.0244123
9.1918
0.0249257
9.18974
0.0254503
9.18762
0.0259863
9.18546
0.026534
9.18326
0.0270936
9.181
0.0276654
9.17869
0.0282497
9.17632
0.0288468
9.17391
0.0294568
9.17143
0.0300802
9.16891
0.0307173
9.16632
0.0313683
9.16368
0.0320335
9.16098
0.0327133
9.15821
0.0334081
9.15538
0.0341181
9.15249
0.0348437
9.14953
0.0355853
9.14651
0.0363432
9.14341
0.0371178
9.14025
0.0379094
9.13701
0.0387185
9.1337
0.0395455
9.13031
0.0403908
9.12684
0.0412548
9.1233
0.042138
9.11967
0.0430407
9.11596
0.0439633
9.11217
0.0449065
9.10829
0.0458707
9.10432
0.0468564
9.10026
0.0478641
9.0961
0.0488943
9.09185
0.0499475
9.0875
0.0510241
9.08306
0.0521248
9.0785
0.0532502
9.07385
0.0544009
9.06909
0.0555775
9.06421
0.0567807
9.05923
0.0580109
9.05412
0.0592688
9.0489
0.0605551
9.04356
0.0618704
9.0381
0.0632155
9.03251
0.0645912
9.02679
0.0659983
9.02093
0.0674374
9.01494
0.0689092
9.00881
0.0704145
9.00254
0.0719542
8.99612
0.0735291
8.98956
0.07514
8.98284
0.076788
8.97596
0.0784739
8.96892
0.0801987
8.96172
0.0819632
8.95434
0.0837684
8.9468
0.0856153
8.93908
0.087505
8.93118
0.0894384
8.92309
0.0914168
8.91481
0.0934413
8.90634
0.0955129
8.89767
0.097633
8.88879
0.0998024
8.87971
0.102023
8.87041
0.104295
8.8609
0.10662
8.85115
0.109
8.84118
0.111437
8.83098
0.113931
8.82053
0.116483
8.80983
0.119096
8.79888
0.12177
8.78768
0.124508
8.7762
0.12731
8.76446
0.13018
8.75244
0.133117
8.74013
0.136125
8.72753
0.139204
8.71463
0.142355
8.70142
0.145582
8.6879
0.148887
8.67406
0.15227
8.65989
0.155735
8.64539
0.159283
8.63054
0.162915
8.61533
0.166634
8.59977
0.170442
8.58383
0.174341
8.56751
0.178334
8.55081
0.182424
8.53371
0.186613
8.5162
0.190903
8.49827
0.195294
8.47992
0.19979
8.46113
0.204395
8.44189
0.209111
8.42219
0.213943
8.40203
0.218891
8.38138
0.223959
8.36024
0.229147
8.3386
0.23446
8.31645
0.2399
8.29377
0.245473
8.27054
0.251182
8.24677
0.25703
8.22242
0.263019
8.1975
0.269151
8.17199
0.27543
8.14587
0.281861
8.11913
0.288448
8.09175
0.295197
8.06371
0.302109
8.03501
0.309189
8.00563
0.316438
7.97556
0.323861
7.94476
0.331464
7.91324
0.339252
7.88096
0.347231