/*--------------------------------*- C++ -*----------------------------------*\
  =========                 |
  \\      /  F ield         | OpenFOAM: The Open Source CFD Toolbox
   \\    /   O peration     | Website:  https://openfoam.org
    \\  /    A nd           | Version:  13
     \\/     M anipulation  |
\*---------------------------------------------------------------------------*/
FoamFile
{
    format      ascii;
    class       volVectorField;
    location    "0.6";
    object      U;
}
// * * * * * * * * * * * * * * * * * * * * * * * * * * * * * * * * * * * * * //

dimensions      [0 1 -1 0 0 0 0];

internalField   nonuniform List<vector> 
68864
(
(30.0155 -0.13105 -1.42429e-21)
(30.0156 -0.131595 -4.27906e-23)
(30.0156 -0.132147 1.14521e-20)
(30.0157 -0.132705 -1.27751e-20)
(30.0157 -0.13327 1.23557e-21)
(30.0158 -0.133842 -1.87958e-21)
(30.0158 -0.134421 5.73523e-21)
(30.0159 -0.135007 -1.87758e-21)
(30.016 -0.1356 2.10958e-21)
(30.016 -0.1362 -7.65859e-21)
(30.0161 -0.136807 4.36802e-21)
(30.0161 -0.137422 5.41035e-22)
(30.0162 -0.138043 -8.85939e-21)
(30.0163 -0.138672 3.61744e-21)
(30.0163 -0.139308 5.06829e-21)
(30.0164 -0.139951 -3.32152e-21)
(30.0165 -0.140602 5.13591e-21)
(30.0165 -0.141261 3.64435e-21)
(30.0166 -0.141927 -1.82663e-21)
(30.0166 -0.1426 -5.99766e-21)
(30.0167 -0.143281 8.80591e-21)
(30.0168 -0.143969 4.48657e-21)
(30.0168 -0.144665 -6.17333e-21)
(30.0169 -0.145369 -6.9569e-21)
(30.017 -0.146081 4.12255e-21)
(30.017 -0.1468 -8.13112e-21)
(30.0171 -0.147527 3.71724e-21)
(30.0172 -0.148261 8.12336e-21)
(30.0172 -0.149004 -1.78019e-20)
(30.0173 -0.149754 -1.25495e-20)
(30.0174 -0.150512 3.84299e-21)
(30.0175 -0.151277 1.04324e-20)
(30.0175 -0.152051 -7.54281e-21)
(30.0176 -0.152832 2.00944e-20)
(30.0177 -0.153621 1.19988e-20)
(30.0177 -0.154418 -2.16019e-20)
(30.0178 -0.155222 2.20916e-20)
(30.0179 -0.156033 -1.06548e-20)
(30.018 -0.156853 -1.32158e-20)
(30.018 -0.157681 2.72297e-20)
(30.0181 -0.158516 -2.65753e-20)
(30.0182 -0.159359 2.56132e-20)
(30.0183 -0.160209 -9.28001e-21)
(30.0184 -0.161066 3.62666e-22)
(30.0184 -0.16193 -2.75833e-20)
(30.0185 -0.162801 3.18866e-20)
(30.0186 -0.16368 -9.768e-21)
(30.0187 -0.164567 -9.5031e-21)
(30.0188 -0.165462 -8.68351e-22)
(30.0189 -0.166363 1.31248e-20)
(30.0189 -0.16727 -1.04749e-20)
(30.019 -0.168183 -3.84457e-21)
(30.0191 -0.169102 2.05669e-20)
(30.0192 -0.170028 -8.89819e-21)
(30.0193 -0.170961 3.9449e-21)
(30.0194 -0.171902 -9.14903e-21)
(30.0195 -0.172849 1.33216e-20)
(30.0196 -0.173801 -1.17725e-20)
(30.0197 -0.174757 8.02321e-21)
(30.0198 -0.175718 -1.94288e-20)
(30.0198 -0.176685 3.03929e-21)
(30.0199 -0.177656 1.46535e-20)
(30.02 -0.178634 -3.7914e-21)
(30.0201 -0.179617 1.10686e-20)
(30.0202 -0.180605 -1.17904e-20)
(30.0203 -0.181596 4.28513e-21)
(30.0204 -0.182591 -5.14876e-21)
(30.0205 -0.183588 3.44595e-21)
(30.0206 -0.184588 2.90783e-22)
(30.0207 -0.185592 4.30789e-21)
(30.0208 -0.186599 4.13781e-21)
(30.0209 -0.187609 -4.27349e-21)
(30.0211 -0.188621 -1.65079e-20)
(30.0212 -0.189635 1.85068e-20)
(30.0213 -0.190651 -7.99672e-21)
(30.0214 -0.191666 -6.5137e-21)
(30.0215 -0.192682 2.11645e-20)
(30.0216 -0.193699 -2.41904e-20)
(30.0217 -0.194715 9.4577e-21)
(30.0218 -0.195732 -1.32961e-20)
(30.0219 -0.196748 2.41095e-20)
(30.022 -0.197763 -1.60818e-20)
(30.0221 -0.198776 4.34297e-21)
(30.0223 -0.199787 1.1561e-20)
(30.0224 -0.200795 -1.43306e-20)
(30.0225 -0.201799 -2.16667e-21)
(30.0226 -0.202801 1.15961e-20)
(30.0227 -0.2038 -4.05702e-21)
(30.0228 -0.204795 -7.98844e-21)
(30.0229 -0.205785 1.44341e-20)
(30.023 -0.206769 4.12404e-21)
(30.0232 -0.207746 4.41771e-21)
(30.0233 -0.208716 -1.85072e-20)
(30.0234 -0.209681 7.37013e-21)
(30.0235 -0.210641 -1.95661e-20)
(30.0236 -0.211594 2.2626e-20)
(30.0237 -0.21254 -3.07756e-20)
(30.0238 -0.213476 2.40083e-20)
(30.0239 -0.2144 1.28793e-21)
(30.024 -0.215314 -2.39608e-20)
(30.0241 -0.216218 3.42141e-20)
(30.0243 -0.217115 -1.14359e-20)
(30.0244 -0.218004 -1.61392e-20)
(30.0245 -0.218883 2.03266e-21)
(30.0246 -0.219749 6.46483e-21)
(30.0247 -0.2206 -4.17892e-21)
(30.0248 -0.221436 1.23099e-20)
(30.0249 -0.222259 3.62803e-21)
(30.025 -0.223071 -1.56358e-20)
(30.0251 -0.223874 2.27574e-21)
(30.0252 -0.224666 2.18802e-21)
(30.0253 -0.225443 1.01688e-21)
(30.0254 -0.226202 3.2421e-21)
(30.0255 -0.226943 -9.27884e-21)
(30.0256 -0.227667 1.18675e-20)
(30.0256 -0.228378 -5.16656e-21)
(30.0257 -0.229078 5.28285e-22)
(30.0258 -0.229766 7.61398e-21)
(30.0259 -0.230438 -3.2035e-21)
(30.026 -0.231091 -4.67701e-21)
(30.0261 -0.231725 -3.24538e-21)
(30.0261 -0.23234 5.76372e-21)
(30.0262 -0.232941 -4.29908e-21)
(30.0263 -0.233528 8.78662e-21)
(30.0264 -0.234102 -6.16331e-22)
(30.0264 -0.234659 7.6433e-22)
(30.0265 -0.235197 -5.13426e-21)
(30.0266 -0.235716 -1.0582e-21)
(30.0266 -0.236218 -1.84317e-21)
(30.0267 -0.236705 2.8847e-21)
(30.0267 -0.23718 -1.94982e-21)
(30.0268 -0.237638 3.88882e-21)
(30.0269 -0.238079 -2.33949e-21)
(30.0269 -0.238501 -4.95963e-24)
(30.027 -0.238905 1.59711e-21)
(30.027 -0.239295 -2.61742e-21)
(30.0271 -0.239673 8.39337e-22)
(30.0271 -0.240039 1.83351e-22)
(30.0271 -0.24039 2.02079e-22)
(30.0272 -0.240722 1.1753e-21)
(30.0272 -0.241034 -2.53033e-21)
(30.0273 -0.241329 2.5931e-21)
(30.0273 -0.241612 -1.86559e-21)
(30.0273 -0.241889 -7.5404e-22)
(30.0274 -0.242159 5.11749e-22)
(30.0274 -0.242415 1.53411e-21)
(30.0274 -0.242651 -3.14248e-22)
(30.0274 -0.242863 -1.10116e-21)
(30.0275 -0.243057 5.28742e-22)
(30.0275 -0.243244 6.2305e-22)
(30.0275 -0.243433 -7.96779e-22)
(30.0275 -0.243625 4.66722e-22)
(30.0276 -0.243806 -1.21832e-22)
(30.0276 -0.243958 -2.21154e-22)
(30.0276 -0.244076 3.01152e-24)
(30.0276 -0.24417 1.00267e-22)
(30.0276 -0.244267 1.11835e-22)
(30.0276 -0.244388 -1.04342e-22)
(30.0277 -0.24453 2.23552e-23)
(30.0277 -0.244661 2.19216e-24)
(30.0277 -0.244739 1.18055e-23)
(30.0277 -0.244751 4.02916e-23)
(30.0277 -0.244729 -3.65756e-23)
(30.0277 -0.244734 1.54546e-23)
(30.0277 -0.244814 -1.56399e-23)
(30.0277 -0.244955 1.56419e-24)
(30.0278 -0.245017 3.65413e-25)
(30.0164 -0.131611 -3.12844e-21)
(30.0164 -0.132109 2.74688e-21)
(30.0165 -0.132613 -3.35605e-20)
(30.0166 -0.133123 5.22099e-21)
(30.0166 -0.133641 6.07831e-21)
(30.0167 -0.134165 2.47095e-20)
(30.0168 -0.134697 -3.03858e-20)
(30.0168 -0.135237 2.98714e-20)
(30.0169 -0.135783 -4.10368e-20)
(30.017 -0.136337 4.6115e-21)
(30.0171 -0.136899 1.76632e-20)
(30.0171 -0.137468 -1.71453e-20)
(30.0172 -0.138044 -1.42115e-21)
(30.0173 -0.138629 1.63398e-20)
(30.0174 -0.13922 6.81846e-22)
(30.0174 -0.13982 -6.19223e-21)
(30.0175 -0.140427 1.80502e-20)
(30.0176 -0.141043 -1.30312e-20)
(30.0177 -0.141666 3.97622e-21)
(30.0178 -0.142297 3.59749e-21)
(30.0179 -0.142936 -4.14095e-21)
(30.0179 -0.143583 -3.25938e-21)
(30.018 -0.144238 2.84989e-20)
(30.0181 -0.144901 -3.84319e-20)
(30.0182 -0.145573 -5.9603e-21)
(30.0183 -0.146252 3.05316e-20)
(30.0184 -0.14694 -1.69221e-20)
(30.0185 -0.147636 1.1052e-20)
(30.0186 -0.14834 -1.98278e-20)
(30.0187 -0.149053 1.16913e-20)
(30.0188 -0.149774 -1.45072e-20)
(30.0189 -0.150503 2.96696e-20)
(30.019 -0.15124 -2.39312e-20)
(30.0191 -0.151986 -1.81374e-20)
(30.0192 -0.15274 6.93995e-20)
(30.0193 -0.153503 2.97947e-21)
(30.0194 -0.154273 -3.25877e-20)
(30.0195 -0.155052 1.89082e-21)
(30.0196 -0.155839 1.26065e-20)
(30.0197 -0.156635 -7.17033e-21)
(30.0198 -0.157439 -2.0534e-20)
(30.0199 -0.158252 1.30989e-20)
(30.02 -0.159072 1.54226e-20)
(30.0202 -0.1599 -2.16377e-20)
(30.0203 -0.160735 -1.58181e-20)
(30.0204 -0.161579 3.38321e-20)
(30.0205 -0.162431 -5.81199e-20)
(30.0206 -0.163292 6.98405e-20)
(30.0208 -0.164161 -3.89148e-20)
(30.0209 -0.165037 -2.06495e-20)
(30.021 -0.16592 6.77235e-21)
(30.0212 -0.16681 4.78155e-20)
(30.0213 -0.167707 -4.23206e-22)
(30.0214 -0.168611 3.83029e-21)
(30.0216 -0.169524 -4.31252e-20)
(30.0217 -0.170444 -1.62524e-20)
(30.0218 -0.171372 2.80571e-20)
(30.022 -0.172306 -1.35668e-20)
(30.0221 -0.173245 5.03322e-21)
(30.0223 -0.17419 -2.10408e-21)
(30.0224 -0.17514 1.24442e-21)
(30.0226 -0.176097 1.27392e-20)
(30.0227 -0.177061 3.57688e-20)
(30.0229 -0.178031 -5.02989e-20)
(30.023 -0.179007 2.4599e-20)
(30.0232 -0.179988 -3.80921e-20)
(30.0234 -0.180972 -1.25388e-20)
(30.0235 -0.18196 4.05195e-20)
(30.0237 -0.182953 1.51712e-20)
(30.0239 -0.18395 -1.01983e-20)
(30.024 -0.184951 -2.36946e-20)
(30.0242 -0.185956 3.56176e-20)
(30.0244 -0.186964 -1.62433e-20)
(30.0246 -0.187975 1.3048e-20)
(30.0247 -0.188988 -2.33957e-20)
(30.0249 -0.190003 2.06674e-20)
(30.0251 -0.19102 1.23504e-20)
(30.0253 -0.192038 9.61405e-22)
(30.0255 -0.193057 -3.98299e-20)
(30.0256 -0.194076 2.83035e-20)
(30.0258 -0.195097 -4.46049e-20)
(30.026 -0.196117 3.00371e-20)
(30.0262 -0.197137 -1.33611e-20)
(30.0264 -0.198155 1.66122e-20)
(30.0266 -0.199172 -1.37499e-20)
(30.0268 -0.200186 2.67014e-20)
(30.027 -0.201199 -2.0053e-20)
(30.0272 -0.202209 5.64237e-21)
(30.0274 -0.203217 -1.67228e-21)
(30.0276 -0.20422 -1.64082e-20)
(30.0278 -0.205219 3.22333e-20)
(30.0279 -0.206212 -1.43189e-20)
(30.0281 -0.207199 -9.19573e-21)
(30.0283 -0.208182 -6.87059e-21)
(30.0285 -0.20916 -2.87068e-21)
(30.0287 -0.210133 7.53672e-21)
(30.0289 -0.211098 1.60886e-20)
(30.0291 -0.212055 8.09425e-21)
(30.0293 -0.213002 -2.71352e-20)
(30.0295 -0.213939 -7.9276e-21)
(30.0297 -0.214867 8.16924e-21)
(30.0299 -0.215788 1.56107e-20)
(30.0301 -0.216701 3.74179e-21)
(30.0303 -0.217606 -3.93143e-21)
(30.0305 -0.218498 -9.96098e-21)
(30.0307 -0.219377 -4.24017e-21)
(30.0309 -0.220241 6.44121e-21)
(30.031 -0.221092 1.60137e-20)
(30.0312 -0.221933 -1.53851e-20)
(30.0314 -0.222763 4.37608e-21)
(30.0316 -0.223584 -1.10668e-20)
(30.0318 -0.224391 1.72576e-20)
(30.0319 -0.225182 -8.00545e-21)
(30.0321 -0.225955 -2.95286e-21)
(30.0323 -0.22671 1.34762e-20)
(30.0324 -0.22745 -1.57091e-20)
(30.0326 -0.228179 -4.8366e-22)
(30.0328 -0.228896 4.92422e-21)
(30.0329 -0.2296 8.11754e-21)
(30.0331 -0.230286 -7.10831e-21)
(30.0332 -0.230953 -6.20667e-21)
(30.0334 -0.2316 9.90751e-21)
(30.0335 -0.23223 -5.38003e-21)
(30.0337 -0.232845 1.1662e-21)
(30.0338 -0.233447 7.72644e-22)
(30.0339 -0.234034 -6.93552e-21)
(30.034 -0.234604 7.89021e-22)
(30.0342 -0.235155 -1.55378e-22)
(30.0343 -0.235687 9.84463e-21)
(30.0344 -0.236201 -3.94446e-21)
(30.0345 -0.2367 1.76066e-21)
(30.0346 -0.237184 -2.40388e-21)
(30.0347 -0.237652 1.9561e-21)
(30.0348 -0.238103 -2.84926e-21)
(30.0349 -0.238536 5.99518e-21)
(30.035 -0.238951 -6.71338e-21)
(30.0351 -0.239351 4.34248e-21)
(30.0352 -0.239737 -3.80647e-21)
(30.0353 -0.24011 6.40428e-23)
(30.0353 -0.240467 4.53634e-21)
(30.0354 -0.240804 -8.73204e-22)
(30.0355 -0.241121 -1.66306e-21)
(30.0355 -0.241423 1.70258e-21)
(30.0356 -0.241714 5.83532e-22)
(30.0357 -0.241998 -3.08083e-21)
(30.0357 -0.242274 -2.82333e-22)
(30.0358 -0.242532 3.50486e-21)
(30.0358 -0.242767 -3.17876e-21)
(30.0359 -0.242977 1.98833e-21)
(30.0359 -0.243172 8.04015e-22)
(30.0359 -0.243367 -2.50692e-21)
(30.036 -0.243566 6.71637e-22)
(30.036 -0.243763 -5.98846e-22)
(30.0361 -0.243938 4.89571e-22)
(30.0361 -0.244077 2.99589e-22)
(30.0361 -0.244182 -3.78846e-22)
(30.0361 -0.244278 8.0769e-22)
(30.0361 -0.244394 -7.36559e-22)
(30.0362 -0.244538 3.02622e-22)
(30.0362 -0.244682 -6.98891e-23)
(30.0362 -0.244782 1.87633e-22)
(30.0362 -0.244812 -3.79893e-23)
(30.0362 -0.244795 -7.01487e-23)
(30.0362 -0.244791 5.41427e-23)
(30.0362 -0.244859 -5.1035e-23)
(30.0362 -0.244996 7.19773e-24)
(30.0362 -0.24507 -4.46088e-24)
(30.0065 -0.131697 -2.34956e-20)
(30.0066 -0.1322 -9.16012e-21)
(30.0067 -0.132709 -1.00846e-20)
(30.0068 -0.133226 2.32665e-20)
(30.0068 -0.133749 -2.90245e-20)
(30.0069 -0.134279 5.349e-20)
(30.007 -0.134817 -7.47795e-21)
(30.0071 -0.135362 2.04565e-21)
(30.0072 -0.135914 3.2593e-22)
(30.0073 -0.136473 5.3297e-21)
(30.0074 -0.13704 -3.87249e-20)
(30.0075 -0.137615 1.42028e-20)
(30.0076 -0.138197 1.7465e-20)
(30.0078 -0.138786 1.71808e-20)
(30.0079 -0.139383 -2.20072e-20)
(30.008 -0.139988 1.27316e-20)
(30.0081 -0.140601 -2.11205e-21)
(30.0082 -0.141222 1.43397e-21)
(30.0083 -0.14185 -1.88343e-20)
(30.0084 -0.142486 -3.17005e-21)
(30.0086 -0.143131 -1.07097e-20)
(30.0087 -0.143783 -1.14688e-20)
(30.0088 -0.144443 1.85596e-20)
(30.0089 -0.145112 5.26961e-21)
(30.0091 -0.145788 -2.68872e-20)
(30.0092 -0.146473 4.67004e-20)
(30.0093 -0.147166 -3.76617e-20)
(30.0095 -0.147867 6.78316e-21)
(30.0096 -0.148576 3.30326e-20)
(30.0097 -0.149294 1.69015e-21)
(30.0099 -0.15002 -4.44202e-20)
(30.01 -0.150754 3.26255e-20)
(30.0102 -0.151496 -3.73123e-20)
(30.0103 -0.152247 -7.59887e-21)
(30.0105 -0.153006 3.27887e-20)
(30.0106 -0.153774 -6.99197e-21)
(30.0108 -0.15455 -1.10147e-20)
(30.0109 -0.155333 2.0731e-20)
(30.0111 -0.156125 5.82999e-21)
(30.0113 -0.156926 1.68591e-20)
(30.0114 -0.157735 -8.49147e-20)
(30.0116 -0.158552 1.72402e-20)
(30.0118 -0.159377 8.97383e-20)
(30.0119 -0.16021 -1.0204e-19)
(30.0121 -0.161051 8.71418e-22)
(30.0123 -0.1619 5.65444e-20)
(30.0125 -0.162756 4.66449e-20)
(30.0127 -0.163622 -2.84128e-20)
(30.0129 -0.164495 1.36071e-20)
(30.0131 -0.165376 -2.34435e-20)
(30.0133 -0.166264 5.39879e-21)
(30.0135 -0.167158 -2.48877e-20)
(30.0137 -0.16806 5.02138e-20)
(30.0139 -0.168969 8.07063e-21)
(30.0141 -0.169886 -4.5937e-20)
(30.0143 -0.170811 -4.26232e-20)
(30.0145 -0.171743 9.8936e-21)
(30.0147 -0.172681 7.41383e-20)
(30.0149 -0.173624 -3.38025e-20)
(30.0152 -0.174574 -3.40799e-20)
(30.0154 -0.175529 -1.92928e-20)
(30.0156 -0.17649 3.72301e-20)
(30.0159 -0.177458 6.04465e-20)
(30.0161 -0.178432 -8.49883e-20)
(30.0163 -0.179411 3.64065e-20)
(30.0166 -0.180395 1.41704e-20)
(30.0168 -0.181383 2.63868e-20)
(30.0171 -0.182376 -3.85886e-20)
(30.0173 -0.183372 1.11519e-20)
(30.0176 -0.184372 -1.34806e-20)
(30.0178 -0.185376 4.7254e-20)
(30.0181 -0.186383 -1.6374e-21)
(30.0184 -0.187394 -4.5221e-20)
(30.0186 -0.188408 9.64904e-21)
(30.0189 -0.189424 -1.60006e-21)
(30.0192 -0.190442 1.01482e-20)
(30.0195 -0.191461 -2.49634e-20)
(30.0197 -0.192481 -1.58207e-20)
(30.02 -0.193501 -2.66201e-21)
(30.0203 -0.194522 1.58238e-20)
(30.0206 -0.195544 -2.15755e-20)
(30.0209 -0.196565 5.99187e-20)
(30.0212 -0.197587 -2.84176e-21)
(30.0215 -0.198607 -3.98723e-20)
(30.0218 -0.199624 4.90907e-21)
(30.0221 -0.200639 2.51067e-20)
(30.0224 -0.201651 -1.28529e-20)
(30.0227 -0.202661 -4.65397e-20)
(30.023 -0.203668 5.76237e-20)
(30.0233 -0.204672 -1.88822e-20)
(30.0236 -0.205671 -1.6311e-20)
(30.0239 -0.206663 -1.41249e-20)
(30.0242 -0.20765 8.58636e-21)
(30.0245 -0.20863 5.52127e-20)
(30.0248 -0.209606 -2.38777e-20)
(30.0251 -0.210576 -1.05928e-20)
(30.0254 -0.21154 3.53488e-20)
(30.0257 -0.212495 -3.65635e-20)
(30.026 -0.21344 3.02531e-20)
(30.0263 -0.214375 -2.99207e-20)
(30.0266 -0.215299 -5.73195e-21)
(30.0269 -0.216216 -5.56798e-22)
(30.0272 -0.217125 4.0527e-21)
(30.0275 -0.218026 1.22764e-20)
(30.0278 -0.218916 5.33774e-21)
(30.0281 -0.219791 -3.79097e-20)
(30.0284 -0.220651 1.87393e-20)
(30.0287 -0.221497 2.85848e-20)
(30.029 -0.222331 -5.55149e-21)
(30.0293 -0.223157 -3.65877e-20)
(30.0295 -0.223973 3.93927e-20)
(30.0298 -0.224776 -1.9946e-20)
(30.0301 -0.225563 1.93625e-20)
(30.0304 -0.22633 -2.47862e-21)
(30.0306 -0.227078 -2.83442e-20)
(30.0309 -0.227811 4.39061e-21)
(30.0311 -0.228533 4.32096e-21)
(30.0314 -0.229244 5.82381e-21)
(30.0316 -0.229943 -1.53026e-21)
(30.0319 -0.230625 -7.9197e-21)
(30.0321 -0.231285 -3.59057e-21)
(30.0323 -0.231925 -7.65489e-21)
(30.0326 -0.232546 2.16662e-20)
(30.0328 -0.233154 4.08018e-21)
(30.033 -0.233749 -1.57043e-20)
(30.0332 -0.23433 1.14241e-21)
(30.0334 -0.234895 3.32354e-22)
(30.0336 -0.23544 -7.11918e-21)
(30.0338 -0.235965 4.98522e-21)
(30.034 -0.236471 6.07569e-21)
(30.0342 -0.236962 6.93708e-21)
(30.0343 -0.237438 -6.27998e-21)
(30.0345 -0.237899 1.90128e-21)
(30.0347 -0.238343 -6.50344e-21)
(30.0348 -0.238771 4.92427e-21)
(30.035 -0.239181 -1.03189e-21)
(30.0351 -0.239575 1.23224e-21)
(30.0353 -0.239954 -6.82642e-22)
(30.0354 -0.240316 1.56036e-21)
(30.0355 -0.240662 -2.40068e-21)
(30.0356 -0.240992 -3.81753e-23)
(30.0358 -0.241306 1.4422e-21)
(30.0359 -0.241607 1.55019e-21)
(30.036 -0.241896 7.90398e-22)
(30.0361 -0.242174 -6.12123e-21)
(30.0362 -0.242437 1.44289e-21)
(30.0363 -0.242681 4.25656e-21)
(30.0364 -0.242905 -3.09442e-21)
(30.0364 -0.243113 -4.60802e-22)
(30.0365 -0.243313 1.34157e-21)
(30.0366 -0.243511 -3.27887e-21)
(30.0367 -0.243707 2.61412e-21)
(30.0367 -0.24389 -6.62473e-22)
(30.0368 -0.244046 1.01545e-21)
(30.0368 -0.24417 -5.87785e-22)
(30.0369 -0.244273 2.64744e-23)
(30.0369 -0.244379 4.03382e-22)
(30.037 -0.244507 -4.44126e-22)
(30.0371 -0.24465 4.33794e-22)
(30.0371 -0.244778 -6.51502e-22)
(30.0372 -0.244852 8.26681e-23)
(30.0372 -0.244865 2.09761e-22)
(30.0372 -0.244849 -4.06033e-23)
(30.0372 -0.244864 7.89936e-24)
(30.0373 -0.24495 4.80962e-23)
(30.0374 -0.245084 -1.87634e-23)
(30.0374 -0.245125 6.28079e-24)
(30.0021 -0.133218 7.5159e-21)
(30.0022 -0.13369 -1.153e-20)
(30.0023 -0.134168 2.78206e-20)
(30.0024 -0.134654 -2.93909e-20)
(30.0025 -0.135146 6.20216e-20)
(30.0026 -0.135645 -8.80513e-20)
(30.0027 -0.136152 4.80906e-20)
(30.0028 -0.136666 3.58429e-20)
(30.003 -0.137187 1.66245e-20)
(30.0031 -0.137715 -4.48344e-20)
(30.0032 -0.138251 3.75219e-20)
(30.0033 -0.138795 -3.46591e-20)
(30.0034 -0.139346 2.06946e-20)
(30.0036 -0.139905 -1.85476e-20)
(30.0037 -0.140471 3.78811e-21)
(30.0038 -0.141046 -2.71989e-20)
(30.004 -0.141628 -1.35648e-20)
(30.0041 -0.142218 6.14802e-20)
(30.0042 -0.142816 -1.78858e-20)
(30.0044 -0.143422 -5.36184e-20)
(30.0045 -0.144037 -1.81905e-20)
(30.0047 -0.144659 2.24947e-20)
(30.0048 -0.14529 -2.50122e-20)
(30.0049 -0.145929 4.90518e-20)
(30.0051 -0.146576 -5.37459e-21)
(30.0053 -0.147232 1.2403e-20)
(30.0054 -0.147895 -3.255e-20)
(30.0056 -0.148568 2.48725e-20)
(30.0057 -0.149249 2.39148e-20)
(30.0059 -0.149938 2.09331e-20)
(30.0061 -0.150636 -3.51937e-20)
(30.0062 -0.151342 -3.22772e-21)
(30.0064 -0.152057 -5.06009e-20)
(30.0066 -0.152781 8.41206e-20)
(30.0068 -0.153514 -6.94073e-20)
(30.007 -0.154255 5.06419e-21)
(30.0071 -0.155004 2.08429e-20)
(30.0073 -0.155762 -2.83703e-20)
(30.0075 -0.156528 7.34558e-20)
(30.0077 -0.157303 -8.0029e-20)
(30.0079 -0.158087 8.89411e-20)
(30.0081 -0.15888 -7.57832e-20)
(30.0083 -0.159681 3.34521e-20)
(30.0085 -0.16049 2.68461e-20)
(30.0088 -0.161307 -4.25718e-20)
(30.009 -0.162132 1.90852e-20)
(30.0092 -0.162966 -2.60913e-20)
(30.0094 -0.163809 2.06857e-20)
(30.0097 -0.16466 1.74873e-20)
(30.0099 -0.16552 -1.08269e-20)
(30.0101 -0.166387 -6.67174e-21)
(30.0104 -0.167261 7.00269e-20)
(30.0106 -0.168142 -1.03682e-19)
(30.0109 -0.169031 6.68672e-20)
(30.0111 -0.169928 2.14649e-20)
(30.0114 -0.170833 -9.42253e-20)
(30.0117 -0.171747 2.96907e-20)
(30.0119 -0.172667 -2.61859e-20)
(30.0122 -0.173593 9.10116e-20)
(30.0125 -0.174525 -7.42564e-20)
(30.0128 -0.175464 1.86287e-20)
(30.013 -0.176408 -1.72051e-20)
(30.0133 -0.177359 9.01713e-20)
(30.0136 -0.178318 -4.0643e-20)
(30.0139 -0.179282 4.25802e-20)
(30.0142 -0.180252 -1.00484e-19)
(30.0145 -0.181227 -4.33147e-20)
(30.0148 -0.182206 3.07687e-20)
(30.0152 -0.183189 3.42804e-20)
(30.0155 -0.184175 3.24399e-20)
(30.0158 -0.185167 2.39811e-20)
(30.0161 -0.186163 -1.12256e-19)
(30.0165 -0.187163 6.4239e-20)
(30.0168 -0.188167 -3.61165e-20)
(30.0171 -0.189173 3.65863e-20)
(30.0175 -0.190181 3.87442e-20)
(30.0178 -0.19119 -9.59585e-20)
(30.0182 -0.1922 1.18341e-19)
(30.0185 -0.193212 -3.61826e-20)
(30.0189 -0.194225 -3.75919e-20)
(30.0192 -0.19524 4.90218e-20)
(30.0196 -0.196255 -5.75232e-20)
(30.02 -0.19727 -2.44168e-20)
(30.0203 -0.198284 2.37906e-20)
(30.0207 -0.199294 4.99557e-20)
(30.0211 -0.200303 -2.71668e-20)
(30.0215 -0.20131 1.47116e-20)
(30.0218 -0.202316 -2.13106e-20)
(30.0222 -0.203321 1.40822e-21)
(30.0226 -0.204322 -4.54132e-20)
(30.023 -0.205317 5.79182e-20)
(30.0234 -0.206306 -1.87563e-20)
(30.0238 -0.207289 5.57482e-20)
(30.0241 -0.208267 -4.04098e-20)
(30.0245 -0.209241 -2.53307e-20)
(30.0249 -0.210212 9.35307e-22)
(30.0253 -0.211176 -7.64758e-21)
(30.0257 -0.212132 -1.28983e-20)
(30.0261 -0.213077 5.95487e-21)
(30.0265 -0.21401 -1.05395e-20)
(30.0268 -0.214935 2.12182e-20)
(30.0272 -0.215853 3.62595e-20)
(30.0276 -0.216765 -1.99596e-20)
(30.028 -0.217669 4.06797e-20)
(30.0284 -0.218562 -2.56142e-20)
(30.0287 -0.21944 1.28046e-20)
(30.0291 -0.220301 -2.48999e-20)
(30.0295 -0.221149 -2.19464e-21)
(30.0298 -0.221987 2.08485e-20)
(30.0302 -0.222818 -4.27144e-20)
(30.0305 -0.22364 3.46247e-20)
(30.0309 -0.22445 1.23902e-20)
(30.0312 -0.225241 -4.30283e-20)
(30.0316 -0.226012 3.32759e-20)
(30.0319 -0.226764 -1.41244e-20)
(30.0322 -0.227503 -1.07612e-20)
(30.0326 -0.228232 -8.28087e-21)
(30.0329 -0.228953 3.36178e-21)
(30.0332 -0.22966 -7.93093e-21)
(30.0335 -0.230348 1.63432e-20)
(30.0338 -0.231014 -5.38386e-21)
(30.0341 -0.231659 1.68215e-20)
(30.0343 -0.232288 -2.24727e-20)
(30.0346 -0.232904 1.33753e-20)
(30.0349 -0.23351 1.28276e-20)
(30.0351 -0.234101 -1.94618e-20)
(30.0354 -0.234675 8.70029e-21)
(30.0356 -0.235228 -1.01152e-21)
(30.0359 -0.235759 3.61619e-22)
(30.0361 -0.236272 -1.06751e-20)
(30.0363 -0.236772 2.69676e-20)
(30.0365 -0.237258 -2.27125e-20)
(30.0367 -0.237731 1.10426e-20)
(30.0369 -0.238186 1.51071e-21)
(30.0371 -0.238623 -3.76476e-22)
(30.0373 -0.239041 -8.69632e-22)
(30.0374 -0.239441 -8.09877e-21)
(30.0376 -0.239827 7.07675e-21)
(30.0377 -0.240199 2.31655e-21)
(30.0379 -0.240555 -6.99623e-21)
(30.038 -0.240896 -2.3611e-22)
(30.0382 -0.241221 1.93389e-21)
(30.0383 -0.24153 3.50987e-21)
(30.0384 -0.241826 1.07098e-22)
(30.0385 -0.24211 -1.94403e-21)
(30.0386 -0.242378 1.33544e-22)
(30.0387 -0.24263 -2.86701e-22)
(30.0388 -0.242864 -2.62751e-21)
(30.0388 -0.243083 8.34341e-21)
(30.0389 -0.243293 -3.84712e-21)
(30.039 -0.2435 -1.15033e-21)
(30.039 -0.2437 5.84691e-22)
(30.0391 -0.243884 1.75292e-21)
(30.0391 -0.244041 -9.9385e-23)
(30.0392 -0.244169 -1.46401e-21)
(30.0392 -0.244284 -2.98755e-22)
(30.0392 -0.244405 1.33263e-21)
(30.0393 -0.244545 -4.53109e-22)
(30.0393 -0.244692 1.34031e-22)
(30.0393 -0.244814 -1.85948e-22)
(30.0394 -0.244879 -8.53263e-23)
(30.0393 -0.24489 2.00793e-22)
(30.0393 -0.244886 -1.39637e-22)
(30.0393 -0.244923 -5.56621e-23)
(30.0394 -0.245029 1.03673e-22)
(30.0394 -0.245164 -1.81035e-23)
(30.0394 -0.245184 -1.22378e-23)
(29.9945 -0.13376 2.60916e-20)
(29.9946 -0.134236 -3.60418e-20)
(29.9947 -0.134717 -1.40619e-20)
(29.9949 -0.135206 3.66407e-20)
(29.995 -0.135702 -1.32283e-20)
(29.9951 -0.136205 1.32109e-20)
(29.9952 -0.136716 -3.47494e-20)
(29.9953 -0.137233 1.78896e-20)
(29.9955 -0.137758 3.10065e-20)
(29.9956 -0.138291 -5.21828e-20)
(29.9957 -0.138831 8.589e-20)
(29.9959 -0.139379 -8.51924e-20)
(29.996 -0.139934 5.02705e-20)
(29.9961 -0.140498 -3.78592e-20)
(29.9963 -0.141069 3.99578e-22)
(29.9964 -0.141648 5.85537e-20)
(29.9966 -0.142234 -1.13174e-19)
(29.9967 -0.142829 6.05535e-20)
(29.9969 -0.143432 5.92566e-21)
(29.9971 -0.144043 -1.34312e-21)
(29.9972 -0.144662 -3.06042e-20)
(29.9974 -0.14529 -1.57531e-20)
(29.9976 -0.145926 -3.16078e-20)
(29.9977 -0.14657 9.20658e-20)
(29.9979 -0.147222 -7.04839e-21)
(29.9981 -0.147883 3.49677e-20)
(29.9983 -0.148553 -5.45428e-20)
(29.9985 -0.149231 1.63846e-20)
(29.9986 -0.149917 -3.45834e-20)
(29.9988 -0.150612 4.05641e-20)
(29.999 -0.151315 4.07615e-20)
(29.9992 -0.152027 -5.62737e-20)
(29.9994 -0.152748 -2.7504e-20)
(29.9997 -0.153478 4.36319e-20)
(29.9999 -0.154216 -8.69712e-20)
(30.0001 -0.154963 1.19854e-19)
(30.0003 -0.155718 -4.73984e-20)
(30.0005 -0.156482 4.53428e-20)
(30.0008 -0.157254 9.48522e-21)
(30.001 -0.158035 -5.53692e-20)
(30.0013 -0.158825 8.42844e-21)
(30.0015 -0.159624 1.20823e-20)
(30.0018 -0.160432 -1.31666e-21)
(30.002 -0.161247 -6.95204e-20)
(30.0023 -0.16207 7.43589e-20)
(30.0025 -0.162901 -1.40654e-20)
(30.0028 -0.16374 7.34322e-21)
(30.0031 -0.164589 1.54608e-20)
(30.0034 -0.165447 -3.65297e-20)
(30.0037 -0.166313 4.94347e-20)
(30.004 -0.167186 -3.66118e-20)
(30.0043 -0.168066 -1.14715e-20)
(30.0046 -0.168952 3.40256e-20)
(30.0049 -0.169847 1.33933e-20)
(30.0052 -0.17075 -3.2505e-20)
(30.0055 -0.171661 -1.74807e-20)
(30.0058 -0.17258 -4.97759e-20)
(30.0062 -0.173506 3.4013e-20)
(30.0065 -0.174438 -5.56406e-20)
(30.0068 -0.175374 9.70977e-20)
(30.0072 -0.176317 7.55012e-21)
(30.0075 -0.177266 -1.19043e-19)
(30.0079 -0.178222 1.37918e-19)
(30.0083 -0.179185 -1.07227e-19)
(30.0086 -0.180155 1.50096e-20)
(30.009 -0.181129 6.08942e-20)
(30.0094 -0.182108 -6.12702e-20)
(30.0098 -0.183089 7.39338e-20)
(30.0102 -0.184075 -1.20593e-19)
(30.0106 -0.185064 6.41863e-20)
(30.011 -0.186059 5.39896e-20)
(30.0114 -0.187058 -5.69783e-20)
(30.0118 -0.188061 1.1386e-19)
(30.0122 -0.189066 -3.0764e-20)
(30.0127 -0.190074 2.10238e-20)
(30.0131 -0.191082 -1.20865e-19)
(30.0135 -0.192092 2.30596e-20)
(30.014 -0.193102 -4.48037e-20)
(30.0144 -0.194115 9.28745e-20)
(30.0149 -0.195128 -1.02599e-19)
(30.0153 -0.196143 9.70683e-20)
(30.0158 -0.197157 -4.52906e-20)
(30.0163 -0.19817 8.29222e-20)
(30.0167 -0.19918 -1.22624e-19)
(30.0172 -0.200188 9.20626e-20)
(30.0177 -0.201194 -4.4408e-21)
(30.0181 -0.202199 -1.05759e-19)
(30.0186 -0.203202 1.55885e-19)
(30.0191 -0.204203 -8.32608e-20)
(30.0196 -0.205198 -1.71874e-20)
(30.0201 -0.206188 4.83251e-20)
(30.0206 -0.20717 -2.29777e-20)
(30.0211 -0.208146 -1.53955e-20)
(30.0216 -0.209118 5.973e-20)
(30.022 -0.210086 -6.68934e-20)
(30.0225 -0.21105 2.04602e-21)
(30.023 -0.212006 -3.29577e-20)
(30.0235 -0.212953 6.62539e-20)
(30.024 -0.213887 3.71775e-21)
(30.0245 -0.21481 -1.17502e-20)
(30.025 -0.215725 -5.81156e-21)
(30.0255 -0.216634 -3.08066e-20)
(30.026 -0.217536 7.88721e-21)
(30.0265 -0.21843 3.32363e-20)
(30.0269 -0.21931 -5.98307e-20)
(30.0274 -0.220175 4.73049e-20)
(30.0279 -0.221023 1.61935e-20)
(30.0284 -0.221858 -2.66692e-20)
(30.0288 -0.222684 3.57464e-20)
(30.0293 -0.223503 -1.06651e-21)
(30.0297 -0.224313 -3.06959e-20)
(30.0302 -0.225108 2.06176e-20)
(30.0306 -0.225883 1.38446e-20)
(30.0311 -0.226638 -1.98603e-20)
(30.0315 -0.227376 4.53964e-21)
(30.0319 -0.228101 -9.26484e-21)
(30.0323 -0.228818 -5.61131e-21)
(30.0328 -0.229525 -2.72733e-20)
(30.0332 -0.230217 5.26115e-20)
(30.0336 -0.230889 2.51707e-21)
(30.0339 -0.231538 -2.42564e-20)
(30.0343 -0.232166 4.38014e-21)
(30.0347 -0.23278 -2.10125e-20)
(30.035 -0.233384 2.38407e-20)
(30.0354 -0.233977 1.98081e-20)
(30.0357 -0.234555 -1.98776e-20)
(30.0361 -0.235113 1.62432e-20)
(30.0364 -0.235648 -5.73296e-21)
(30.0367 -0.236162 -1.99756e-20)
(30.037 -0.23666 -5.51021e-21)
(30.0373 -0.237148 -1.03633e-21)
(30.0375 -0.237624 3.43114e-21)
(30.0378 -0.238086 2.0006e-20)
(30.0381 -0.238527 -2.25258e-20)
(30.0383 -0.238947 4.63115e-21)
(30.0385 -0.239348 -2.61714e-21)
(30.0388 -0.239734 6.02337e-21)
(30.039 -0.240109 5.7572e-21)
(30.0392 -0.240473 -6.94022e-21)
(30.0394 -0.240822 5.54368e-21)
(30.0396 -0.241151 -6.59247e-21)
(30.0397 -0.241462 5.42616e-21)
(30.0399 -0.241756 -3.02291e-21)
(30.04 -0.242039 -5.29517e-22)
(30.0402 -0.242313 -8.54777e-22)
(30.0403 -0.242574 5.22039e-22)
(30.0405 -0.242819 5.96002e-22)
(30.0406 -0.243045 -1.78893e-21)
(30.0407 -0.243255 3.44442e-21)
(30.0408 -0.243456 1.8899e-23)
(30.0409 -0.243653 9.63971e-22)
(30.041 -0.243844 -2.40286e-21)
(30.041 -0.244018 1.11105e-21)
(30.0411 -0.244166 5.75598e-22)
(30.0412 -0.244288 -2.43317e-21)
(30.0412 -0.2444 2.25047e-21)
(30.0413 -0.244523 -1.08316e-22)
(30.0413 -0.244662 -9.49688e-22)
(30.0414 -0.2448 -4.00318e-22)
(30.0414 -0.244904 -2.7965e-22)
(30.0414 -0.244951 3.14586e-23)
(30.0414 -0.244954 1.29375e-22)
(30.0414 -0.24496 -1.59365e-22)
(30.0414 -0.245017 -9.92574e-23)
(30.0415 -0.245134 -6.21819e-23)
(30.0415 -0.245252 -2.69484e-23)
(30.0415 -0.245239 -1.14999e-23)
(29.9884 -0.135458 -5.49501e-20)
(29.9885 -0.135922 -3.20176e-20)
(29.9886 -0.136392 7.29073e-20)
(29.9888 -0.136869 -3.7634e-20)
(29.9889 -0.137353 5.15587e-21)
(29.989 -0.137845 8.44999e-21)
(29.9892 -0.138343 7.77661e-21)
(29.9893 -0.138849 3.23723e-20)
(29.9894 -0.139361 -8.58275e-20)
(29.9896 -0.139882 2.34404e-20)
(29.9897 -0.140409 2.91957e-20)
(29.9899 -0.140945 5.98959e-21)
(29.99 -0.141488 -5.80568e-21)
(29.9902 -0.142039 5.12221e-20)
(29.9904 -0.142597 -5.50079e-20)
(29.9905 -0.143163 1.41248e-20)
(29.9907 -0.143737 2.30439e-20)
(29.9909 -0.144319 -4.49006e-20)
(29.991 -0.144909 -2.78514e-20)
(29.9912 -0.145508 7.25067e-20)
(29.9914 -0.146114 -8.30102e-20)
(29.9916 -0.146729 7.50188e-20)
(29.9918 -0.147352 -1.70258e-20)
(29.992 -0.147983 -6.38187e-21)
(29.9922 -0.148623 -6.87239e-20)
(29.9924 -0.149271 3.8568e-21)
(29.9926 -0.149927 9.98464e-20)
(29.9928 -0.150592 -8.03609e-20)
(29.993 -0.151266 -1.66584e-21)
(29.9932 -0.151948 3.3016e-20)
(29.9935 -0.152639 4.09645e-20)
(29.9937 -0.153338 1.51443e-20)
(29.9939 -0.154046 -3.32119e-20)
(29.9942 -0.154763 -6.48103e-20)
(29.9944 -0.155488 5.58775e-20)
(29.9947 -0.156222 2.23675e-20)
(29.9949 -0.156965 -3.25401e-20)
(29.9952 -0.157716 -6.08293e-20)
(29.9954 -0.158476 3.97496e-20)
(29.9957 -0.159244 7.37056e-20)
(29.996 -0.160022 -3.00755e-20)
(29.9963 -0.160809 4.27003e-20)
(29.9966 -0.161604 -1.35263e-19)
(29.9969 -0.162407 3.99268e-20)
(29.9972 -0.163217 3.47446e-20)
(29.9975 -0.164036 -1.55189e-20)
(29.9978 -0.164864 -5.62775e-21)
(29.9981 -0.165702 3.38452e-20)
(29.9984 -0.166548 -1.38448e-20)
(29.9987 -0.167402 -2.98846e-20)
(29.9991 -0.168263 3.73185e-20)
(29.9994 -0.16913 -1.3969e-20)
(29.9998 -0.170005 5.29346e-20)
(30.0001 -0.170888 -4.8288e-20)
(30.0005 -0.17178 -4.88907e-23)
(30.0009 -0.17268 4.47667e-20)
(30.0012 -0.173588 2.40864e-20)
(30.0016 -0.174503 -4.7622e-20)
(30.002 -0.175423 -5.58582e-20)
(30.0024 -0.176348 3.14424e-20)
(30.0028 -0.177279 4.65254e-20)
(30.0032 -0.178218 -4.46761e-20)
(30.0036 -0.179163 -4.83329e-20)
(30.0041 -0.180116 5.1964e-20)
(30.0045 -0.181074 -3.99492e-20)
(30.0049 -0.182037 -1.55108e-20)
(30.0054 -0.183004 7.63817e-20)
(30.0058 -0.183974 -4.30645e-20)
(30.0063 -0.184949 -1.38268e-20)
(30.0067 -0.185928 -6.80569e-20)
(30.0072 -0.186912 1.1436e-19)
(30.0077 -0.1879 3.80137e-20)
(30.0082 -0.188892 3.40613e-20)
(30.0087 -0.189886 1.75702e-20)
(30.0092 -0.190881 -1.64097e-19)
(30.0097 -0.191878 1.84044e-20)