# Force coefficients
# liftDir     : (0.000000e+00 1.000000e+00 0.000000e+00)
# dragDir     : (1.000000e+00 0.000000e+00 0.000000e+00)
# pitchAxis   : (0.000000e+00 0.000000e+00 1.000000e+00)
# magUInf     : 3.000000e+01
# lRef        : 1.000000e+00
# Aref        : 1.000000e+00
# CofR        : (0.000000e+00 0.000000e+00 0.000000e+00)
# Time        	Cm            	Cd            	Cl            	Cl(f)         	Cl(r)         
0             	-3.288325e-04	1.782970e-02	3.513332e-05	-3.112658e-04	3.463992e-04
0.0005        	9.457966e-01	1.337874e+00	3.793669e-01	1.135480e+00	-7.561131e-01
0.001         	6.678140e-01	8.529055e-01	3.561576e-01	8.458928e-01	-4.897352e-01
0.0015        	1.317355e-01	1.463877e-03	2.481239e-01	2.557974e-01	-7.673526e-03
0.002         	-1.125341e-01	-4.146032e-01	2.356109e-01	5.271341e-03	2.303395e-01
0.0025        	-5.194007e-02	-3.261627e-01	2.486456e-01	7.238275e-02	1.762629e-01
0.003         	9.088393e-02	-5.040901e-02	2.102719e-01	1.960199e-01	1.425200e-02
0.0035        	1.810276e-01	1.341230e-01	1.725771e-01	2.673161e-01	-9.473905e-02
0.004         	1.849429e-01	1.506027e-01	1.639589e-01	2.669224e-01	-1.029634e-01
0.0045        	1.515631e-01	7.431353e-02	1.915256e-01	2.473259e-01	-5.580032e-02
0.005         	1.248526e-01	2.192490e-03	2.248623e-01	2.372838e-01	-1.242142e-02
0.0055        	1.164717e-01	-2.170584e-02	2.334341e-01	2.331887e-01	2.453815e-04
0.006         	1.185905e-01	-7.371056e-03	2.147178e-01	2.259494e-01	-1.123163e-02
0.0065        	1.221302e-01	1.670624e-02	1.887988e-01	2.165296e-01	-2.773083e-02
0.007         	1.244778e-01	3.019427e-02	1.773863e-01	2.131710e-01	-3.578471e-02
0.0075        	1.258909e-01	2.980684e-02	1.839667e-01	2.178743e-01	-3.390752e-02
0.008         	1.277217e-01	2.238971e-02	1.997100e-01	2.275767e-01	-2.786667e-02
0.0085        	1.283901e-01	1.582920e-02	2.098159e-01	2.332981e-01	-2.348215e-02
0.009         	1.272906e-01	1.373782e-02	2.090873e-01	2.318342e-01	-2.274695e-02
0.0095        	1.252561e-01	1.517204e-02	2.019138e-01	2.262130e-01	-2.429924e-02
0.01          	1.239248e-01	1.759796e-02	1.961200e-01	2.219848e-01	-2.586487e-02
0.0105        	1.242957e-01	1.892040e-02	1.962414e-01	2.224164e-01	-2.617496e-02
0.011         	1.259329e-01	1.869961e-02	2.010662e-01	2.264660e-01	-2.539986e-02
0.0115        	1.280034e-01	1.760109e-02	2.072998e-01	2.316533e-01	-2.435356e-02
0.012         	1.293960e-01	1.669370e-02	2.113077e-01	2.350498e-01	-2.374211e-02
0.0125        	1.299056e-01	1.644105e-02	2.125125e-01	2.361619e-01	-2.364939e-02
0.013         	1.300970e-01	1.670886e-02	2.126392e-01	2.364166e-01	-2.377744e-02
0.0135        	1.304125e-01	1.709414e-02	2.132930e-01	2.370590e-01	-2.376601e-02
0.014         	1.310745e-01	1.724655e-02	2.151981e-01	2.386736e-01	-2.347543e-02
0.0145        	1.319899e-01	1.712275e-02	2.179770e-01	2.409784e-01	-2.300140e-02
0.015         	1.329804e-01	1.686067e-02	2.209378e-01	2.434493e-01	-2.251148e-02
0.0155        	1.337884e-01	1.666676e-02	2.233104e-01	2.454436e-01	-2.213319e-02
0.016         	1.343920e-01	1.663363e-02	2.250128e-01	2.468983e-01	-2.188557e-02
0.0165        	1.350003e-01	1.671981e-02	2.265791e-01	2.482898e-01	-2.171075e-02
0.017         	1.357153e-01	1.682643e-02	2.283548e-01	2.498927e-01	-2.153785e-02
0.0175        	1.365409e-01	1.687294e-02	2.304342e-01	2.517580e-01	-2.132384e-02
0.018         	1.374286e-01	1.684666e-02	2.327280e-01	2.537926e-01	-2.106463e-02
0.0185        	1.383009e-01	1.678547e-02	2.350399e-01	2.558208e-01	-2.078096e-02
0.019         	1.390787e-01	1.674251e-02	2.371584e-01	2.576579e-01	-2.049950e-02
0.0195        	1.397850e-01	1.674436e-02	2.390928e-01	2.593314e-01	-2.023854e-02
0.02          	1.404767e-01	1.678231e-02	2.409492e-01	2.609513e-01	-2.000210e-02
0.0205        	1.411962e-01	1.682878e-02	2.428267e-01	2.626095e-01	-1.978286e-02
0.021         	1.419440e-01	1.685904e-02	2.447543e-01	2.643211e-01	-1.956684e-02
0.0215        	1.427010e-01	1.686631e-02	2.467201e-01	2.660611e-01	-1.934094e-02
0.022         	1.434237e-01	1.685778e-02	2.486533e-01	2.677503e-01	-1.909705e-02
0.0225        	1.440956e-01	1.684776e-02	2.505201e-01	2.693557e-01	-1.883555e-02
0.023         	1.447326e-01	1.684640e-02	2.523395e-01	2.709023e-01	-1.856286e-02
0.0235        	1.453497e-01	1.685421e-02	2.541227e-01	2.724111e-01	-1.828836e-02
0.024         	1.459677e-01	1.686549e-02	2.558966e-01	2.739160e-01	-1.801941e-02
0.0245        	1.465976e-01	1.687367e-02	2.576763e-01	2.754358e-01	-1.775947e-02
0.025         	1.472403e-01	1.687514e-02	2.594658e-01	2.769732e-01	-1.750736e-02
0.0255        	1.478911e-01	1.687068e-02	2.612623e-01	2.785222e-01	-1.725997e-02
0.026         	1.485456e-01	1.686348e-02	2.630634e-01	2.800773e-01	-1.701386e-02
0.0265        	1.491953e-01	1.685629e-02	2.648548e-01	2.816227e-01	-1.676786e-02
0.027         	1.498416e-01	1.685081e-02	2.666379e-01	2.831606e-01	-1.652268e-02
0.0275        	1.504900e-01	1.684748e-02	2.684185e-01	2.846992e-01	-1.628073e-02
0.028         	1.511417e-01	1.684525e-02	2.701963e-01	2.862398e-01	-1.604349e-02
0.0285        	1.517960e-01	1.684316e-02	2.719689e-01	2.877805e-01	-1.581158e-02
0.029         	1.524470e-01	1.683999e-02	2.737268e-01	2.893104e-01	-1.558360e-02
0.0295        	1.530919e-01	1.683591e-02	2.754681e-01	2.908260e-01	-1.535787e-02
0.03          	1.537262e-01	1.683089e-02	2.771883e-01	2.923204e-01	-1.513205e-02
0.0305        	1.543492e-01	1.682550e-02	2.788884e-01	2.937934e-01	-1.490499e-02
0.031         	1.549593e-01	1.681976e-02	2.805673e-01	2.952429e-01	-1.467563e-02
0.0315        	1.555563e-01	1.681374e-02	2.822246e-01	2.966686e-01	-1.444406e-02
0.032         	1.561389e-01	1.680698e-02	2.838573e-01	2.980675e-01	-1.421018e-02
0.0325        	1.567066e-01	1.679922e-02	2.854644e-01	2.994388e-01	-1.397438e-02
0.033         	1.572582e-01	1.679001e-02	2.870434e-01	3.007799e-01	-1.373647e-02
0.0335        	1.577935e-01	1.677925e-02	2.885941e-01	3.020905e-01	-1.349648e-02
0.034         	1.583116e-01	1.676671e-02	2.901151e-01	3.033691e-01	-1.325402e-02
0.0345        	1.588126e-01	1.675243e-02	2.916070e-01	3.046161e-01	-1.300906e-02
0.035         	1.592961e-01	1.673628e-02	2.930694e-01	3.058308e-01	-1.276134e-02
0.0355        	1.597624e-01	1.671831e-02	2.945028e-01	3.070139e-01	-1.251102e-02
0.036         	1.602114e-01	1.669846e-02	2.959068e-01	3.081648e-01	-1.225804e-02
0.0365        	1.606432e-01	1.667681e-02	2.972813e-01	3.092839e-01	-1.200258e-02
0.037         	1.610577e-01	1.665332e-02	2.986262e-01	3.103708e-01	-1.174460e-02
0.0375        	1.614545e-01	1.662804e-02	2.999406e-01	3.114248e-01	-1.148420e-02
0.038         	1.618336e-01	1.660094e-02	3.012245e-01	3.124459e-01	-1.122137e-02
0.0385        	1.621948e-01	1.657209e-02	3.024771e-01	3.134334e-01	-1.095627e-02
0.039         	1.625381e-01	1.654149e-02	3.036982e-01	3.143872e-01	-1.068900e-02
0.0395        	1.628643e-01	1.650928e-02	3.048891e-01	3.153089e-01	-1.041981e-02
0.04          	1.631740e-01	1.647549e-02	3.060504e-01	3.161992e-01	-1.014884e-02
0.0405        	1.634678e-01	1.644022e-02	3.071829e-01	3.170592e-01	-9.876321e-03
0.041         	1.637458e-01	1.640351e-02	3.082868e-01	3.178892e-01	-9.602404e-03
0.0415        	1.640081e-01	1.636548e-02	3.093616e-01	3.186889e-01	-9.327347e-03
0.042         	1.642561e-01	1.632620e-02	3.104096e-01	3.194609e-01	-9.051329e-03
0.0425        	1.644903e-01	1.628577e-02	3.114314e-01	3.202060e-01	-8.774637e-03
0.043         	1.647110e-01	1.624425e-02	3.124269e-01	3.209245e-01	-8.497534e-03
0.0435        	1.649190e-01	1.620176e-02	3.133973e-01	3.216177e-01	-8.220403e-03
0.044         	1.651157e-01	1.615843e-02	3.143441e-01	3.222877e-01	-7.943592e-03
0.0445        	1.653017e-01	1.611440e-02	3.152684e-01	3.229359e-01	-7.667523e-03
0.045         	1.654781e-01	1.606977e-02	3.161711e-01	3.235636e-01	-7.392531e-03
0.0455        	1.656462e-01	1.602464e-02	3.170544e-01	3.241733e-01	-7.118975e-03
0.046         	1.658062e-01	1.597917e-02	3.179181e-01	3.247653e-01	-6.847202e-03
0.0465        	1.659595e-01	1.593347e-02	3.187639e-01	3.253415e-01	-6.577568e-03
0.047         	1.661075e-01	1.588765e-02	3.195943e-01	3.259047e-01	-6.310339e-03
0.0475        	1.662507e-01	1.584184e-02	3.204097e-01	3.264555e-01	-6.045829e-03
0.048         	1.663894e-01	1.579611e-02	3.212103e-01	3.269946e-01	-5.784303e-03
0.0485        	1.665243e-01	1.575058e-02	3.219965e-01	3.275226e-01	-5.526072e-03
0.049         	1.666567e-01	1.570535e-02	3.227706e-01	3.280420e-01	-5.271352e-03
0.0495        	1.667874e-01	1.566053e-02	3.235342e-01	3.285545e-01	-5.020353e-03
0.05          	1.669175e-01	1.561618e-02	3.242886e-01	3.290618e-01	-4.773191e-03
0.0505        	1.670462e-01	1.557239e-02	3.250323e-01	3.295623e-01	-4.530049e-03
0.051         	1.671743e-01	1.552916e-02	3.257666e-01	3.300576e-01	-4.291003e-03
0.0515        	1.673019e-01	1.548657e-02	3.264915e-01	3.305476e-01	-4.056158e-03
0.052         	1.674295e-01	1.544467e-02	3.272078e-01	3.310334e-01	-3.825543e-03
0.0525        	1.675574e-01	1.540356e-02	3.279164e-01	3.315155e-01	-3.599154e-03
0.053         	1.676858e-01	1.536321e-02	3.286177e-01	3.319947e-01	-3.376940e-03
0.0535        	1.678143e-01	1.532360e-02	3.293108e-01	3.324697e-01	-3.158903e-03
0.054         	1.679429e-01	1.528473e-02	3.299957e-01	3.329407e-01	-2.945016e-03
0.0545        	1.680716e-01	1.524661e-02	3.306728e-01	3.334080e-01	-2.735250e-03
0.055         	1.682006e-01	1.520928e-02	3.313422e-01	3.338717e-01	-2.529527e-03
0.0555        	1.683298e-01	1.517276e-02	3.320041e-01	3.343319e-01	-2.327770e-03
0.056         	1.684591e-01	1.513707e-02	3.326584e-01	3.347883e-01	-2.129902e-03
0.0565        	1.685883e-01	1.510224e-02	3.333049e-01	3.352408e-01	-1.935879e-03
0.057         	1.687177e-01	1.506817e-02	3.339441e-01	3.356897e-01	-1.745670e-03
0.0575        	1.688472e-01	1.503480e-02	3.345760e-01	3.361352e-01	-1.559248e-03
0.058         	1.689767e-01	1.500212e-02	3.352004e-01	3.365769e-01	-1.376549e-03
0.0585        	1.691062e-01	1.497017e-02	3.358173e-01	3.370148e-01	-1.197503e-03
0.059         	1.692355e-01	1.493899e-02	3.364270e-01	3.374491e-01	-1.022026e-03
0.0595        	1.693645e-01	1.490858e-02	3.370290e-01	3.378790e-01	-8.500559e-04
0.06          	1.694932e-01	1.487891e-02	3.376233e-01	3.383049e-01	-6.815307e-04
0.0605        	1.696215e-01	1.484992e-02	3.382103e-01	3.387267e-01	-5.163987e-04
0.061         	1.697494e-01	1.482162e-02	3.387895e-01	3.391441e-01	-3.545888e-04
0.0615        	1.698769e-01	1.479403e-02	3.393618e-01	3.395578e-01	-1.960185e-04
0.062         	1.700039e-01	1.476700e-02	3.399266e-01	3.399672e-01	-4.061980e-05
0.0625        	1.701303e-01	1.474044e-02	3.404840e-01	3.403723e-01	1.116620e-04
0.063         	1.702561e-01	1.471441e-02	3.410340e-01	3.407731e-01	2.608836e-04
0.0635        	1.703809e-01	1.468898e-02	3.415761e-01	3.411690e-01	4.070968e-04
0.064         	1.705050e-01	1.466420e-02	3.421106e-01	3.415603e-01	5.503611e-04
0.0645        	1.706283e-01	1.464003e-02	3.426380e-01	3.419473e-01	6.907249e-04
0.065         	1.707508e-01	1.461644e-02	3.431580e-01	3.423298e-01	8.282476e-04
0.0655        	1.708723e-01	1.459337e-02	3.436706e-01	3.427076e-01	9.629869e-04
0.066         	1.709929e-01	1.457080e-02	3.441758e-01	3.430808e-01	1.095002e-03
0.0665        	1.711125e-01	1.454872e-02	3.446736e-01	3.434493e-01	1.224344e-03
0.067         	1.712311e-01	1.452711e-02	3.451642e-01	3.438132e-01	1.351066e-03
0.0675        	1.713486e-01	1.450596e-02	3.456476e-01	3.441724e-01	1.475215e-03
0.068         	1.714650e-01	1.448526e-02	3.461237e-01	3.445269e-01	1.596838e-03
0.0685        	1.715803e-01	1.446502e-02	3.465925e-01	3.448766e-01	1.715980e-03
0.069         	1.716945e-01	1.444522e-02	3.470544e-01	3.452217e-01	1.832681e-03
0.0695        	1.718076e-01	1.442584e-02	3.475092e-01	3.455622e-01	1.946984e-03
0.07          	1.719195e-01	1.440689e-02	3.479569e-01	3.458980e-01	2.058936e-03
0.0705        	1.720303e-01	1.438835e-02	3.483978e-01	3.462292e-01	2.168573e-03
0.071         	1.721399e-01	1.437021e-02	3.488318e-01	3.465558e-01	2.275937e-03
0.0715        	1.722484e-01	1.435246e-02	3.492589e-01	3.468779e-01	2.381066e-03
0.072         	1.723557e-01	1.433509e-02	3.496794e-01	3.471954e-01	2.483999e-03
0.0725        	1.724618e-01	1.431811e-02	3.500931e-01	3.475083e-01	2.584775e-03
0.073         	1.725666e-01	1.430151e-02	3.505000e-01	3.478166e-01	2.683429e-03
0.0735        	1.726703e-01	1.428527e-02	3.509006e-01	3.481206e-01	2.779992e-03
0.074         	1.727729e-01	1.426939e-02	3.512948e-01	3.484203e-01	2.874503e-03
0.0745        	1.728744e-01	1.425387e-02	3.516828e-01	3.487158e-01	2.966996e-03
0.075         	1.729747e-01	1.423871e-02	3.520644e-01	3.490069e-01	3.057511e-03
0.0755        	1.730739e-01	1.422389e-02	3.524399e-01	3.492938e-01	3.146079e-03
0.076         	1.731718e-01	1.420941e-02	3.528091e-01	3.495764e-01	3.232736e-03
0.0765        	1.732687e-01	1.419527e-02	3.531724e-01	3.498549e-01	3.317510e-03
0.077         	1.733645e-01	1.418147e-02	3.535299e-01	3.501295e-01	3.400434e-03
0.0775        	1.734593e-01	1.416799e-02	3.538817e-01	3.504002e-01	3.481541e-03
0.078         	1.735531e-01	1.415482e-02	3.542280e-01	3.506671e-01	3.560869e-03
0.0785        	1.736458e-01	1.414198e-02	3.545685e-01	3.509300e-01	3.638451e-03
0.079         	1.737374e-01	1.412944e-02	3.549035e-01	3.511892e-01	3.714317e-03
0.0795        	1.738280e-01	1.411722e-02	3.552330e-01	3.514445e-01	3.788499e-03
0.08          	1.739176e-01	1.410531e-02	3.555572e-01	3.516962e-01	3.861025e-03
0.0805        	1.740062e-01	1.409369e-02	3.558762e-01	3.519443e-01	3.931926e-03
0.081         	1.740938e-01	1.408236e-02	3.561901e-01	3.521889e-01	4.001236e-03
0.0815        	1.741805e-01	1.407132e-02	3.564990e-01	3.524300e-01	4.068985e-03
0.082         	1.742663e-01	1.406057e-02	3.568030e-01	3.526677e-01	4.135206e-03
0.0825        	1.743511e-01	1.405010e-02	3.571021e-01	3.529022e-01	4.199927e-03
0.083         	1.744350e-01	1.403990e-02	3.573964e-01	3.531333e-01	4.263179e-03
0.0835        	1.745181e-01	1.402997e-02	3.576861e-01	3.533612e-01	4.324990e-03
0.084         	1.746002e-01	1.402031e-02	3.579712e-01	3.535858e-01	4.385393e-03
0.0845        	1.746815e-01	1.401091e-02	3.582518e-01	3.538074e-01	4.444415e-03
0.085         	1.747619e-01	1.400176e-02	3.585280e-01	3.540259e-01	4.502086e-03
0.0855        	1.748415e-01	1.399286e-02	3.587998e-01	3.542414e-01	4.558432e-03
0.086         	1.749203e-01	1.398420e-02	3.590675e-01	3.544540e-01	4.613484e-03
0.0865        	1.749982e-01	1.397578e-02	3.593310e-01	3.546637e-01	4.667271e-03
0.087         	1.750754e-01	1.396760e-02	3.595903e-01	3.548705e-01	4.719821e-03
0.0875        	1.751517e-01	1.395964e-02	3.598457e-01	3.550745e-01	4.771162e-03
0.088         	1.752272e-01	1.395190e-02	3.600971e-01	3.552757e-01	4.821319e-03
0.0885        	1.753020e-01	1.394438e-02	3.603446e-01	3.554743e-01	4.870320e-03
0.089         	1.753760e-01	1.393707e-02	3.605885e-01	3.556703e-01	4.918191e-03
0.0895        	1.754493e-01	1.392997e-02	3.608286e-01	3.558636e-01	4.964961e-03
0.09          	1.755219e-01	1.392306e-02	3.610650e-01	3.560544e-01	5.010655e-03
0.0905        	1.755937e-01	1.391635e-02	3.612979e-01	3.562426e-01	5.055300e-03
0.091         	1.756647e-01	1.390983e-02	3.615273e-01	3.564284e-01	5.098921e-03
0.0915        	1.757351e-01	1.390349e-02	3.617533e-01	3.566118e-01	5.141542e-03
0.092         	1.758048e-01	1.389733e-02	3.619759e-01	3.567927e-01	5.183188e-03
0.0925        	1.758737e-01	1.389134e-02	3.621952e-01	3.569714e-01	5.223887e-03
0.093         	1.759420e-01	1.388553e-02	3.624113e-01	3.571477e-01	5.263662e-03
0.0935        	1.760096e-01	1.387987e-02	3.626243e-01	3.573217e-01	5.302537e-03
0.094         	1.760765e-01	1.387438e-02	3.628341e-01	3.574936e-01	5.340535e-03
0.0945        	1.761428e-01	1.386904e-02	3.630410e-01	3.576633e-01	5.377679e-03
0.095         	1.762084e-01	1.386384e-02	3.632448e-01	3.578308e-01	5.413994e-03
0.0955        	1.762734e-01	1.385880e-02	3.634457e-01	3.579962e-01	5.449504e-03
0.096         	1.763376e-01	1.385389e-02	3.636437e-01	3.581595e-01	5.484230e-03
0.0965        	1.764013e-01	1.384912e-02	3.638389e-01	3.583207e-01	5.518194e-03
0.097         	1.764643e-01	1.384448e-02	3.640314e-01	3.584800e-01	5.551416e-03
0.0975        	1.765267e-01	1.383996e-02	3.642212e-01	3.586373e-01	5.583920e-03
0.098         	1.765885e-01	1.383557e-02	3.644085e-01	3.587928e-01	5.615726e-03
0.0985        	1.766497e-01	1.383129e-02	3.645931e-01	3.589462e-01	5.646859e-03
0.099         	1.767103e-01	1.382712e-02	3.647752e-01	3.590979e-01	5.677335e-03
0.0995        	1.767702e-01	1.382307e-02	3.649548e-01	3.592476e-01	5.707178e-03
0.1           	1.768296e-01	1.381912e-02	3.651319e-01	3.593955e-01	5.736403e-03
0.1005        	1.768884e-01	1.381528e-02	3.653068e-01	3.595418e-01	5.765030e-03
0.101         	1.769466e-01	1.381153e-02	3.654793e-01	3.596862e-01	5.793078e-03
0.1015        	1.770042e-01	1.380787e-02	3.656495e-01	3.598289e-01	5.820566e-03
0.102         	1.770612e-01	1.380431e-02	3.658174e-01	3.599699e-01	5.847506e-03
0.1025        	1.771177e-01	1.380084e-02	3.659833e-01	3.601094e-01	5.873910e-03
0.103         	1.771737e-01	1.379746e-02	3.661470e-01	3.602472e-01	5.899796e-03
0.1035        	1.772292e-01	1.379417e-02	3.663087e-01	3.603835e-01	5.925175e-03
0.104         	1.772842e-01	1.379095e-02	3.664684e-01	3.605184e-01	5.950062e-03
0.1045        	1.773386e-01	1.378782e-02	3.666262e-01	3.606518e-01	5.974471e-03
0.105         	1.773926e-01	1.378476e-02	3.667821e-01	3.607837e-01	5.998418e-03
0.1055        	1.774461e-01	1.378178e-02	3.669361e-01	3.609142e-01	6.021919e-03
0.106         	1.774992e-01	1.377886e-02	3.670883e-01	3.610433e-01	6.044990e-03
0.1065        	1.775517e-01	1.377601e-02	3.672387e-01	3.611711e-01	6.067648e-03
0.107         	1.776038e-01	1.377322e-02	3.673873e-01	3.612974e-01	6.089908e-03
0.1075        	1.776553e-01	1.377049e-02	3.675342e-01	3.614224e-01	6.111785e-03
0.108         	1.777064e-01	1.376782e-02	3.676794e-01	3.615461e-01	6.133295e-03
0.1085        	1.777570e-01	1.376519e-02	3.678229e-01	3.616684e-01	6.154453e-03
0.109         	1.778071e-01	1.376262e-02	3.679647e-01	3.617895e-01	6.175272e-03
0.1095        	1.778567e-01	1.376009e-02	3.681049e-01	3.619092e-01	6.195765e-03
0.11          	1.779058e-01	1.375760e-02	3.682435e-01	3.620276e-01	6.215945e-03
0.1105        	1.779544e-01	1.375515e-02	3.683805e-01	3.621447e-01	6.235824e-03
0.111         	1.780026e-01	1.375274e-02	3.685159e-01	3.622605e-01	6.255412e-03
0.1115        	1.780502e-01	1.375037e-02	3.686498e-01	3.623751e-01	6.274720e-03
0.112         	1.780974e-01	1.374802e-02	3.687822e-01	3.624885e-01	6.293759e-03
0.1125        	1.781440e-01	1.374571e-02	3.689131e-01	3.626006e-01	6.312537e-03
0.113         	1.781902e-01	1.374343e-02	3.690426e-01	3.627116e-01	6.331064e-03
0.1135        	1.782360e-01	1.374117e-02	3.691706e-01	3.628213e-01	6.349350e-03
0.114         	1.782812e-01	1.373894e-02	3.692972e-01	3.629298e-01	6.367402e-03
0.1145        	1.783260e-01	1.373673e-02	3.694224e-01	3.630372e-01	6.385230e-03
0.115         	1.783703e-01	1.373454e-02	3.695462e-01	3.631434e-01	6.402840e-03
0.1155        	1.784141e-01	1.373237e-02	3.696687e-01	3.632484e-01	6.420240e-03
0.116         	1.784575e-01	1.373022e-02	3.697898e-01	3.633524e-01	6.437438e-03
0.1165        	1.785004e-01	1.372809e-02	3.699096e-01	3.634552e-01	6.454441e-03
0.117         	1.785428e-01	1.372597e-02	3.700281e-01	3.635569e-01	6.471257e-03
0.1175        	1.785848e-01	1.372386e-02	3.701453e-01	3.636574e-01	6.487891e-03
0.118         	1.786263e-01	1.372176e-02	3.702613e-01	3.637569e-01	6.504350e-03
0.1185        	1.786674e-01	1.371968e-02	3.703760e-01	3.638554e-01	6.520639e-03
0.119         	1.787080e-01	1.371761e-02	3.704895e-01	3.639528e-01	6.536765e-03
0.1195        	1.787482e-01	1.371555e-02	3.706019e-01	3.640491e-01	6.552734e-03
0.12          	1.787879e-01	1.371349e-02	3.707129e-01	3.641444e-01	6.568550e-03
0.1205        	1.788272e-01	1.371144e-02	3.708228e-01	3.642386e-01	6.584218e-03
0.121         	1.788661e-01	1.370941e-02	3.709316e-01	3.643319e-01	6.599742e-03
0.1215        	1.789045e-01	1.370737e-02	3.710392e-01	3.644241e-01	6.615126e-03
0.122         	1.789425e-01	1.370535e-02	3.711457e-01	3.645153e-01	6.630375e-03
0.1225        	1.789800e-01	1.370333e-02	3.712511e-01	3.646056e-01	6.645494e-03
0.123         	1.790172e-01	1.370131e-02	3.713554e-01	3.646949e-01	6.660486e-03
0.1235        	1.790539e-01	1.369930e-02	3.714586e-01	3.647832e-01	6.675356e-03
0.124         	1.790902e-01	1.369729e-02	3.715607e-01	3.648706e-01	6.690107e-03
0.1245        	1.791261e-01	1.369529e-02	3.716617e-01	3.649570e-01	6.704741e-03
0.125         	1.791616e-01	1.369329e-02	3.717617e-01	3.650424e-01	6.719263e-03
0.1255        	1.791966e-01	1.369129e-02	3.718606e-01	3.651269e-01	6.733675e-03
0.126         	1.792313e-01	1.368929e-02	3.719585e-01	3.652105e-01	6.747979e-03
0.1265        	1.792655e-01	1.368730e-02	3.720554e-01	3.652932e-01	6.762179e-03
0.127         	1.792993e-01	1.368531e-02	3.721512e-01	3.653749e-01	6.776277e-03
0.1275        	1.793327e-01	1.368333e-02	3.722460e-01	3.654558e-01	6.790274e-03
0.128         	1.793658e-01	1.368134e-02	3.723399e-01	3.655357e-01	6.804173e-03
0.1285        	1.793984e-01	1.367936e-02	3.724327e-01	3.656147e-01	6.817976e-03
0.129         	1.794306e-01	1.367738e-02	3.725245e-01	3.656928e-01	6.831685e-03
0.1295        	1.794624e-01	1.367540e-02	3.726154e-01	3.657701e-01	6.845301e-03
0.13          	1.794938e-01	1.367343e-02	3.727053e-01	3.658464e-01	6.858825e-03
0.1305        	1.795248e-01	1.367146e-02	3.727942e-01	3.659219e-01	6.872260e-03
0.131         	1.795555e-01	1.366949e-02	3.728822e-01	3.659966e-01	6.885607e-03
0.1315        	1.795857e-01	1.366752e-02	3.729692e-01	3.660704e-01	6.898867e-03
0.132         	1.796156e-01	1.366556e-02	3.730553e-01	3.661433e-01	6.912040e-03
0.1325        	1.796451e-01	1.366360e-02	3.731405e-01	3.662154e-01	6.925128e-03
0.133         	1.796742e-01	1.366164e-02	3.732248e-01	3.662866e-01	6.938133e-03
0.1335        	1.797030e-01	1.365969e-02	3.733081e-01	3.663570e-01	6.951054e-03
0.134         	1.797314e-01	1.365774e-02	3.733905e-01	3.664266e-01	6.963892e-03
0.1345        	1.797594e-01	1.365579e-02	3.734721e-01	3.664954e-01	6.976648e-03
0.135         	1.797870e-01	1.365385e-02	3.735527e-01	3.665634e-01	6.989322e-03
0.1355        	1.798143e-01	1.365191e-02	3.736325e-01	3.666306e-01	7.001916e-03
0.136         	1.798413e-01	1.364997e-02	3.737114e-01	3.666969e-01	7.014429e-03
0.1365        	1.798678e-01	1.364804e-02	3.737894e-01	3.667625e-01	7.026860e-03
0.137         	1.798941e-01	1.364611e-02	3.738665e-01	3.668273e-01	7.039211e-03
0.1375        	1.799199e-01	1.364419e-02	3.739429e-01	3.668914e-01	7.051481e-03
0.138         	1.799455e-01	1.364228e-02	3.740183e-01	3.669546e-01	7.063671e-03
0.1385        	1.799707e-01	1.364036e-02	3.740929e-01	3.670172e-01	7.075781e-03
0.139         	1.799956e-01	1.363846e-02	3.741667e-01	3.670789e-01	7.087810e-03
0.1395        	1.800201e-01	1.363656e-02	3.742397e-01	3.671400e-01	7.099758e-03
0.14          	1.800443e-01	1.363466e-02	3.743119e-01	3.672002e-01	7.111625e-03
0.1405        	1.800682e-01	1.363277e-02	3.743832e-01	3.672598e-01	7.123412e-03
0.141         	1.800917e-01	1.363088e-02	3.744537e-01	3.673186e-01	7.135117e-03
0.1415        	1.801150e-01	1.362901e-02	3.745234e-01	3.673767e-01	7.146740e-03
0.142         	1.801379e-01	1.362713e-02	3.745924e-01	3.674341e-01	7.158282e-03
0.1425        	1.801605e-01	1.362527e-02	3.746605e-01	3.674908e-01	7.169742e-03
0.143         	1.801828e-01	1.362341e-02	3.747278e-01	3.675467e-01	7.181119e-03
0.1435        	1.802048e-01	1.362155e-02	3.747944e-01	3.676020e-01	7.192413e-03
0.144         	1.802265e-01	1.361971e-02	3.748602e-01	3.676566e-01	7.203624e-03
0.1445        	1.802479e-01	1.361787e-02	3.749252e-01	3.677105e-01	7.214752e-03
0.145         	1.802689e-01	1.361604e-02	3.749895e-01	3.677637e-01	7.225796e-03
0.1455        	1.802897e-01	1.361421e-02	3.750530e-01	3.678162e-01	7.236755e-03
0.146         	1.803102e-01	1.361239e-02	3.751157e-01	3.678681e-01	7.247630e-03
0.1465        	1.803304e-01	1.361058e-02	3.751777e-01	3.679193e-01	7.258420e-03
0.147         	1.803504e-01	1.360878e-02	3.752390e-01	3.679698e-01	7.269126e-03
0.1475        	1.803700e-01	1.360699e-02	3.752995e-01	3.680197e-01	7.279745e-03
0.148         	1.803894e-01	1.360520e-02	3.753593e-01	3.680690e-01	7.290279e-03
0.1485        	1.804084e-01	1.360342e-02	3.754183e-01	3.681176e-01	7.300727e-03
0.149         	1.804273e-01	1.360165e-02	3.754767e-01	3.681656e-01	7.311088e-03
0.1495        	1.804458e-01	1.359989e-02	3.755343e-01	3.682129e-01	7.321363e-03
0.15          	1.804641e-01	1.359814e-02	3.755912e-01	3.682597e-01	7.331552e-03
0.1505        	1.804821e-01	1.359640e-02	3.756475e-01	3.683058e-01	7.341654e-03
0.151         	1.804998e-01	1.359466e-02	3.757030e-01	3.683513e-01	7.351668e-03
0.1515        	1.805173e-01	1.359294e-02	3.757578e-01	3.683962e-01	7.361595e-03
0.152         	1.805345e-01	1.359123e-02	3.758119e-01	3.684405e-01	7.371434e-03
0.1525        	1.805515e-01	1.358952e-02	3.758654e-01	3.684842e-01	7.381185e-03
0.153         	1.805683e-01	1.358783e-02	3.759182e-01	3.685274e-01	7.390848e-03
0.1535        	1.805848e-01	1.358615e-02	3.759704e-01	3.685699e-01	7.400422e-03
0.154         	1.806010e-01	1.358448e-02	3.760218e-01	3.686119e-01	7.409908e-03
0.1545        	1.806170e-01	1.358282e-02	3.760727e-01	3.686534e-01	7.419304e-03
0.155         	1.806328e-01	1.358117e-02	3.761228e-01	3.686942e-01	7.428612e-03
0.1555        	1.806484e-01	1.357953e-02	3.761724e-01	3.687345e-01	7.437830e-03
0.156         	1.806637e-01	1.357790e-02	3.762213e-01	3.687743e-01	7.446959e-03
0.1565        	1.806788e-01	1.357629e-02	3.762695e-01	3.688135e-01	7.455999e-03
0.157         	1.806936e-01	1.357469e-02	3.763172e-01	3.688522e-01	7.464948e-03
0.1575        	1.807083e-01	1.357311e-02	3.763642e-01	3.688904e-01	7.473808e-03
0.158         	1.807227e-01	1.357153e-02	3.764106e-01	3.689281e-01	7.482578e-03
0.1585        	1.807370e-01	1.356997e-02	3.764564e-01	3.689652e-01	7.491259e-03
0.159         	1.807510e-01	1.356843e-02	3.765016e-01	3.690018e-01	7.499849e-03
0.1595        	1.807648e-01	1.356689e-02	3.765462e-01	3.690379e-01	7.508350e-03
0.16          	1.807784e-01	1.356537e-02	3.765903e-01	3.690735e-01	7.516760e-03
0.1605        	1.807918e-01	1.356387e-02	3.766337e-01	3.691086e-01	7.525081e-03
0.161         	1.808050e-01	1.356238e-02	3.766766e-01	3.691433e-01	7.533312e-03
0.1615        	1.808180e-01	1.356091e-02	3.767189e-01	3.691774e-01	7.541453e-03
0.162         	1.808308e-01	1.355945e-02	3.767606e-01	3.692111e-01	7.549505e-03
0.1625        	1.808434e-01	1.355800e-02	3.768017e-01	3.692443e-01	7.557466e-03
0.163         	1.808558e-01	1.355657e-02	3.768423e-01	3.692770e-01	7.565339e-03
0.1635        	1.808681e-01	1.355516e-02	3.768824e-01	3.693093e-01	7.573122e-03
0.164         	1.808802e-01	1.355376e-02	3.769219e-01	3.693411e-01	7.580816e-03
0.1645        	1.808920e-01	1.355238e-02	3.769609e-01	3.693725e-01	7.588421e-03
0.165         	1.809037e-01	1.355101e-02	3.769994e-01	3.694034e-01	7.595938e-03
0.1655        	1.809153e-01	1.354966e-02	3.770373e-01	3.694339e-01	7.603366e-03
0.166         	1.809266e-01	1.354832e-02	3.770747e-01	3.694640e-01	7.610706e-03
0.1665        	1.809378e-01	1.354700e-02	3.771116e-01	3.694936e-01	7.617958e-03
0.167         	1.809488e-01	1.354570e-02	3.771479e-01	3.695228e-01	7.625122e-03
0.1675        	1.809597e-01	1.354441e-02	3.771838e-01	3.695516e-01	7.632198e-03
0.168         	1.809704e-01	1.354314e-02	3.772192e-01	3.695800e-01	7.639188e-03
0.1685        	1.809810e-01	1.354188e-02	3.772541e-01	3.696080e-01	7.646090e-03
0.169         	1.809914e-01	1.354064e-02	3.772885e-01	3.696356e-01	7.652906e-03
0.1695        	1.810016e-01	1.353942e-02	3.773225e-01	3.696628e-01	7.659637e-03
0.17          	1.810117e-01	1.353821e-02	3.773560e-01	3.696897e-01	7.666282e-03
0.1705        	1.810216e-01	1.353702e-02	3.773889e-01	3.697161e-01	7.672841e-03
0.171         	1.810314e-01	1.353584e-02	3.774215e-01	3.697421e-01	7.679317e-03
0.1715        	1.810411e-01	1.353467e-02	3.774535e-01	3.697678e-01	7.685709e-03
0.172         	1.810505e-01	1.353352e-02	3.774851e-01	3.697931e-01	7.692022e-03
0.1725        	1.810599e-01	1.353239e-02	3.775163e-01	3.698181e-01	7.698255e-03
0.173         	1.810691e-01	1.353127e-02	3.775471e-01	3.698427e-01	7.704410e-03
0.1735        	1.810782e-01	1.353016e-02	3.775774e-01	3.698669e-01	7.710484e-03
0.174         	1.810871e-01	1.352907e-02	3.776073e-01	3.698908e-01	7.716479e-03
0.1745        	1.810960e-01	1.352800e-02	3.776367e-01	3.699143e-01	7.722394e-03
0.175         	1.811046e-01	1.352694e-02	3.776657e-01	3.699375e-01	7.728231e-03
0.1755        	1.811132e-01	1.352591e-02	3.776944e-01	3.699604e-01	7.733992e-03
0.176         	1.811217e-01	1.352489e-02	3.777227e-01	3.699831e-01	7.739673e-03
0.1765        	1.811300e-01	1.352388e-02	3.777505e-01	3.700053e-01	7.745273e-03
0.177         	1.811381e-01	1.352289e-02	3.777779e-01	3.700271e-01	7.750791e-03
0.1775        	1.811462e-01	1.352191e-02	3.778048e-01	3.700486e-01	7.756232e-03
0.178         	1.811541e-01	1.352094e-02	3.778315e-01	3.700699e-01	7.761602e-03
0.1785        	1.811620e-01	1.351997e-02	3.778578e-01	3.700909e-01	7.766904e-03
0.179         	1.811697e-01	1.351903e-02	3.778837e-01	3.701115e-01	7.772137e-03
0.1795        	1.811773e-01	1.351809e-02	3.779092e-01	3.701319e-01	7.777298e-03
0.18          	1.811848e-01	1.351717e-02	3.779343e-01	3.701519e-01	7.782386e-03
0.1805        	1.811921e-01	1.351626e-02	3.779591e-01	3.701716e-01	7.787401e-03
0.181         	1.811994e-01	1.351537e-02	3.779835e-01	3.701911e-01	7.792346e-03
0.1815        	1.812066e-01	1.351450e-02	3.780076e-01	3.702103e-01	7.797233e-03
0.182         	1.812136e-01	1.351364e-02	3.780313e-01	3.702293e-01	7.802049e-03
0.1825        	1.812206e-01	1.351279e-02	3.780547e-01	3.702479e-01	7.806784e-03
0.183         	1.812274e-01	1.351195e-02	3.780777e-01	3.702663e-01	7.811441e-03
0.1835        	1.812341e-01	1.351113e-02	3.781004e-01	3.702843e-01	7.816030e-03