/*--------------------------------*- C++ -*----------------------------------*\
  =========                 |
  \\      /  F ield         | OpenFOAM: The Open Source CFD Toolbox
   \\    /   O peration     | Website:  https://openfoam.org
    \\  /    A nd           | Version:  13
     \\/     M anipulation  |
\*---------------------------------------------------------------------------*/
FoamFile
{
    format      ascii;
    class       volScalarField;
    location    "0.15";
    object      p;
}
// * * * * * * * * * * * * * * * * * * * * * * * * * * * * * * * * * * * * * //

dimensions      [0 2 -2 0 0 0 0];

internalField   nonuniform List<scalar> 
68864
(
0.365522
0.36411
0.36254
0.360792
0.359037
0.357314
0.35559
0.353846
0.352085
0.350315
0.348534
0.346742
0.344936
0.343119
0.341288
0.339445
0.337588
0.335717
0.333833
0.331933
0.330019
0.32809
0.326145
0.324184
0.322207
0.320213
0.318202
0.316174
0.314127
0.312062
0.309977
0.307874
0.305751
0.303607
0.301443
0.299257
0.29705
0.294821
0.292569
0.290295
0.287997
0.285675
0.283329
0.280958
0.278562
0.276141
0.273694
0.271221
0.268721
0.266195
0.263641
0.26106
0.258451
0.255814
0.253149
0.250456
0.247735
0.244985
0.242206
0.239399
0.236564
0.2337
0.230807
0.227887
0.224939
0.221963
0.21896
0.21593
0.212873
0.209791
0.206683
0.203551
0.200395
0.197215
0.194013
0.19079
0.187547
0.184284
0.181003
0.177705
0.174391
0.171063
0.167722
0.16437
0.161008
0.157638
0.154261
0.15088
0.147496
0.144111
0.140727
0.137347
0.133971
0.130603
0.127244
0.123897
0.120563
0.117246
0.113946
0.110668
0.107412
0.104182
0.100978
0.0978049
0.0946634
0.091556
0.088485
0.0854525
0.0824606
0.0795114
0.0766068
0.0737488
0.0709392
0.0681797
0.0654722
0.0628181
0.060219
0.0576762
0.0551911
0.0527649
0.0503985
0.048093
0.0458493
0.0436679
0.0415495
0.0394947
0.0375037
0.0355767
0.033714
0.0319154
0.0301808
0.0285099
0.0269025
0.0253579
0.0238757
0.0224549
0.0210949
0.0197947
0.0185531
0.017369
0.0162411
0.015168
0.0141481
0.0131797
0.0122608
0.0113893
0.0105629
0.00977992
0.00903858
0.00833672
0.00767193
0.00704169
0.00644339
0.00587435
0.00533185
0.00481317
0.00431564
0.00383667
0.00337381
0.00292481
0.00248778
0.00206111
0.00164429
0.00123657
0.000841149
0.000460771
0.000100459
0.627851
0.626207
0.624279
0.622142
0.62001
0.617905
0.615779
0.613614
0.611419
0.6092
0.606955
0.604682
0.60238
0.600049
0.597689
0.595297
0.592875
0.590421
0.587934
0.585414
0.582859
0.58027
0.577645
0.574983
0.572284
0.569547
0.566771
0.563955
0.561098
0.5582
0.555259
0.552275
0.549246
0.546172
0.543052
0.539885
0.53667
0.533406
0.530093
0.526728
0.523312
0.519844
0.516322
0.512746
0.509115
0.505428
0.501684
0.497883
0.494023
0.490104
0.486126
0.482087
0.477987
0.473825
0.469601
0.465315
0.460965
0.456551
0.452074
0.447533
0.442927
0.438257
0.433523
0.428724
0.423861
0.418933
0.413942
0.408888
0.403771
0.398592
0.393352
0.388051
0.382691
0.377272
0.371796
0.366265
0.360679
0.355041
0.349351
0.343613
0.337829
0.331999
0.326128
0.320216
0.314268
0.308285
0.302271
0.296229
0.290162
0.284073
0.277966
0.271844
0.265711
0.259571
0.253428
0.247286
0.241149
0.235021
0.228906
0.22281
0.216736
0.210688
0.204672
0.198692
0.192751
0.186856
0.18101
0.175217
0.169482
0.16381
0.158205
0.15267
0.147211
0.14183
0.136532
0.131321
0.1262
0.121172
0.11624
0.111409
0.10668
0.102057
0.0975406
0.0931346
0.0888405
0.0846602
0.0805951
0.0766467
0.0728159
0.0691038
0.0655108
0.0620374
0.0586837
0.0554497
0.052335
0.049339
0.046461
0.0437
0.0410545
0.0385232
0.0361042
0.0337955
0.0315949
0.0294999
0.0275076
0.0256152
0.0238192
0.0221155
0.0204994
0.0189666
0.0175124
0.0161321
0.0148202
0.0135715
0.0123802
0.0112405
0.0101466
0.00909287
0.00807363
0.00708369
0.00611825
0.00517343
0.00424567
0.00333631
0.00243904
0.00159311
0.000608591
0.939617
0.937423
0.934854
0.932078
0.929319
0.926546
0.923714
0.920821
0.91788
0.914893
0.911858
0.908771
0.905632
0.902441
0.899197
0.895898
0.892544
0.889134
0.885666
0.882139
0.878554
0.874907
0.871199
0.867428
0.863594
0.859694
0.855728
0.851695
0.847593
0.843421
0.839179
0.834864
0.830476
0.826013
0.821474
0.816858
0.812164
0.80739
0.802536
0.797599
0.792579
0.787474
0.782284
0.777007
0.771642
0.766187
0.760642
0.755006
0.749277
0.743455
0.737539
0.731527
0.725419
0.719213
0.712911
0.706509
0.700009
0.693409
0.68671
0.67991
0.67301
0.666009
0.658907
0.651705
0.644403
0.637001
0.6295
0.6219
0.614202
0.606407
0.598517
0.590532
0.582454
0.574285
0.566026
0.55768
0.549249
0.540736
0.532142
0.523471
0.514727
0.505912
0.497029
0.488083
0.479078
0.470017
0.460906
0.451749
0.44255
0.433314
0.424048
0.414756
0.405444
0.396117
0.386783
0.377446
0.368113
0.358791
0.349486
0.340205
0.330954
0.32174
0.312571
0.303453
0.294392
0.285397
0.276473
0.267628
0.258869
0.250202
0.241634
0.233171
0.22482
0.216588
0.208479
0.200501
0.192657
0.184955
0.177399
0.169994
0.162744
0.155654
0.148728
0.141968
0.13538
0.128964
0.122725
0.116664
0.110784
0.105085
0.0995682
0.0942354
0.0890866
0.0841218
0.0793406
0.0747424
0.0703261
0.0660903
0.0620331
0.0581524
0.0544455
0.0509096
0.0475412
0.0443364
0.0412911
0.0384004
0.0356591
0.0330614
0.0306009
0.028271
0.0260644
0.0239735
0.0219899
0.0201051
0.0183101
0.0165956
0.0149524
0.0133711
0.0118429
0.0103592
0.00891211
0.00749414
0.00610065
0.0047205
0.00336429
0.00196601
0.000710077
1.20181
1.1991
1.19601
1.19276
1.18954
1.18627
1.18292
1.17949
1.17602
1.17248
1.16889
1.16523
1.1615
1.15771
1.15386
1.14994
1.14594
1.14188
1.13774
1.13353
1.12924
1.12488
1.12044
1.11592
1.11131
1.10663
1.10185
1.097
1.09205
1.08701
1.08188
1.07666
1.07134
1.06593
1.06042
1.0548
1.04909
1.04327
1.03734
1.03131
1.02516
1.01891
1.01254
1.00606
0.999461
0.992745
0.985909
0.978952
0.971872
0.964667
0.957337
0.94988
0.942295
0.93458
0.926734
0.918756
0.910645
0.902401
0.894022
0.885508
0.876859
0.868074
0.859152
0.850094
0.8409
0.83157
0.822105
0.812505
0.802771
0.792904
0.782905
0.772776
0.762519
0.752135
0.741627
0.730997
0.720248
0.709383
0.698404
0.687317
0.676124
0.66483
0.653438
0.641955
0.630384
0.618731
0.607002
0.595203
0.583339
0.571417
0.559444
0.547427
0.535374
0.52329
0.511186
0.499067
0.486943
0.474822
0.462713
0.450624
0.438564
0.426542
0.414567
0.402649
0.390797
0.379019
0.367325
0.355725
0.344228
0.332841
0.321576
0.31044
0.299442
0.288591
0.277894
0.267361
0.256998
0.246813
0.236814
0.227006
0.217397
0.207992
0.198798
0.189819
0.18106
0.172525
0.164219
0.156144
0.148304
0.140701
0.133337
0.126213
0.119331
0.112691
0.106293
0.100137
0.0942214
0.0885449
0.0831057
0.0779013
0.0729287
0.0681845
0.0636647
0.0593644
0.0552786
0.0514013
0.0477258
0.0442448
0.0409501
0.0378329
0.0348833
0.0320911
0.0294449
0.0269329
0.0245428
0.0222617
0.0200766
0.0179745
0.0159426
0.0139689
0.012042
0.0101515
0.00828975
0.00644507
0.00462212
0.00278275
0.000991183
1.47057
1.46772
1.46444
1.46101
1.45762
1.45414
1.45055
1.44688
1.44313
1.4393
1.4354
1.43141
1.42733
1.42317
1.41892
1.41457
1.41014
1.40561
1.40099
1.39626
1.39144
1.38651
1.38149
1.37635
1.37111
1.36575
1.36029
1.3547
1.34901
1.34319
1.33725
1.33119
1.325
1.31869
1.31224
1.30566
1.29895
1.2921
1.28511
1.27798
1.27071
1.26329
1.25572
1.24801
1.24014
1.23212
1.22394
1.2156
1.2071
1.19844
1.18962
1.18063
1.17147
1.16214
1.15265
1.14298
1.13314
1.12313
1.11294
1.10258
1.09204
1.08132
1.07043
1.05936
1.04811
1.03669
1.02509
1.01332
1.00137
0.989251
0.976961
0.964501
0.951874
0.939083
0.92613
0.913019
0.899752
0.886333
0.872768
0.859059
0.845212
0.831232
0.817125
0.802896
0.788551
0.774098
0.759543
0.744894
0.730159
0.715344
0.70046
0.685515
0.670517
0.655477
0.640403
0.625307
0.610198
0.595087
0.579984
0.564901
0.549849
0.534839
0.519883
0.504992
0.490178
0.475453
0.460828
0.446315
0.431925
0.41767
0.403562
0.389612
0.375831
0.362229
0.348817
0.335605
0.322604
0.309823
0.297271
0.284956
0.272887
0.261072
0.249518
0.238232
0.22722
0.216487
0.20604
0.195881
0.186016
0.176447
0.167177
0.158209
0.149543
0.141181
0.133124
0.125369
0.117918
0.110768
0.103917
0.0973624
0.0911008
0.0851281
0.0794395
0.0740296
0.068892
0.0640195
0.0594041
0.0550368
0.0509075
0.047005
0.0433171
0.0398306
0.0365311
0.0334033
0.030431
0.0275974
0.0248853
0.0222776
0.0197573
0.0173083
0.0149158
0.012566
0.0102486
0.00795018
0.00567542
0.0033884
0.00115972
1.72672
1.72344
1.7197
1.71584
1.71203
1.7081
1.70404
1.69988
1.69564
1.69132
1.6869
1.68238
1.67776
1.67305
1.66823
1.66331
1.65828
1.65314
1.64789
1.64253
1.63705
1.63145
1.62573
1.61988
1.61391
1.60781
1.60158
1.59522
1.58872
1.58208
1.5753
1.56837
1.56129
1.55406
1.54668
1.53915
1.53145
1.5236
1.51558
1.50739
1.49903
1.4905
1.48179
1.4729
1.46383
1.45458
1.44515
1.43552
1.4257
1.41569
1.40549
1.39508
1.38448
1.37367
1.36266
1.35144
1.34001
1.32838
1.31654
1.30448
1.29221
1.27973
1.26704
1.25413
1.24101
1.22768
1.21413
1.20038
1.18641
1.17223
1.15784
1.14325
1.12845
1.11346
1.09827
1.08288
1.0673
1.05154
1.0356
1.01948
1.00319
0.986744
0.970135
0.953376
0.936474
0.919437
0.902274
0.884992
0.867601
0.850111
0.832531
0.814873
0.797146
0.779363
0.761534
0.743672
0.725789
0.707898
0.690011
0.672142
0.654303
0.636509
0.618773
0.601109
0.583532
0.566054
0.54869
0.531454
0.51436
0.497423
0.480654
0.464069
0.44768
0.4315
0.415542
0.399819
0.384342
0.369123
0.354174
0.339503
0.325123
0.311041
0.297268
0.28381
0.270677
0.257875
0.245409
0.233287
0.221512
0.210089
0.199021
0.188311
0.177962
0.167974
0.158348
0.149084
0.140181
0.131638
0.123453
0.115622
0.108143
0.10101
0.0942183
0.0877618
0.0816334
0.075825
0.0703272
0.0651296
0.0602205
0.0555866
0.0512132
0.0470844
0.0431824
0.0394883
0.0359821
0.0326427
0.0294484
0.0263775
0.0234084
0.0205208
0.0176958
0.0149162
0.0121697
0.00943846
0.00673416
0.00399464
0.00139162
1.97563
1.97223
1.96834
1.96435
1.96041
1.95633
1.95209
1.94773
1.94329
1.93875
1.93409
1.92932
1.92443
1.91943
1.9143
1.90906
1.90369
1.89819
1.89256
1.88679
1.88089
1.87485
1.86866
1.86233
1.85585
1.84922
1.84243
1.83548
1.82837
1.82109
1.81365
1.80603
1.79824
1.79027
1.78211
1.77377
1.76524
1.75652
1.7476
1.73848
1.72916
1.71964
1.7099
1.69995
1.68978
1.6794
1.66879
1.65796
1.6469
1.63561
1.62408
1.61232
1.60032
1.58808
1.57559
1.56286
1.54988
1.53665
1.52316
1.50943
1.49544
1.4812
1.46671
1.45195
1.43695
1.42169
1.40617
1.3904
1.37438
1.35811
1.34159
1.32482
1.30781
1.29056
1.27308
1.25536
1.23742
1.21925
1.20087
1.18228
1.16348
1.14449
1.12531
1.10595
1.08641
1.06672
1.04687
1.02688
1.00676
0.986512
0.96616
0.945712
0.92518
0.904577
0.883918
0.863216
0.842486
0.821742
0.801
0.780275
0.759582
0.738938
0.718358
0.69786
0.677458
0.65717
0.637012
0.617
0.597151
0.577481
0.558006
0.538742
0.519703
0.500907
0.482366
0.464097
0.446112
0.428425
0.41105
0.393998
0.377281
0.360911
0.344898
0.329251
0.31398
0.299093
0.284596
0.270498
0.256802
0.243516
0.230641
0.218183
0.206143
0.194523
0.183324
0.172547
0.16219
0.152251
0.14273
0.133622
0.124924
0.116631
0.108738
0.101237
0.0941206
0.0873806
0.0810061
0.0749855
0.0693052
0.0639501
0.0589032
0.0541454
0.0496558
0.0454116
0.0413886
0.0375609
0.033902
0.030385
0.0269834
0.0236719
0.0204274
0.0172287
0.0140617
0.0109039
0.00777652
0.00458653
0.00162912
2.22487
2.22111
2.21684
2.21249
2.2082
2.20375
2.19911
2.19434
2.18948
2.1845
2.1794
2.17417
2.16881
2.16331
2.15769
2.15192
2.14602
2.13997
2.13377
2.12742
2.12092
2.11426
2.10743
2.10044
2.09329
2.08596
2.07845
2.07077
2.0629
2.05484
2.04659
2.03814
2.0295
2.02065
2.0116
2.00233
1.99285
1.98315
1.97323
1.96308
1.9527
1.94208
1.93122
1.92012
1.90878
1.89718
1.88533
1.87322
1.86086
1.84822
1.83532
1.82215
1.8087
1.79498
1.78098
1.76669
1.75212
1.73727
1.72212
1.70669
1.69096
1.67495
1.65864
1.64204
1.62514
1.60795
1.59047
1.5727
1.55463
1.53628
1.51764
1.49872
1.47953
1.46005
1.4403
1.42029
1.40002
1.37949
1.35871
1.33769
1.31643
1.29495
1.27325
1.25134
1.22924
1.20695
1.18448
1.16185
1.13907
1.11614
1.0931
1.06994
1.04669
1.02335
0.999949
0.976498
0.953014
0.929514
0.906016
0.882535
0.859092
0.835703
0.812388
0.789164
0.76605
0.743065
0.720228
0.697557
0.67507
0.652787
0.630726
0.608903
0.587338
0.566046
0.545046
0.524353
0.503983
0.483952
0.464274
0.444963
0.426032
0.407494
0.389361
0.371644
0.354352
0.337495
0.321081
0.305119
0.289613
0.27457
0.259995
0.245891
0.232261
0.219108
0.206431
0.194232
0.18251
0.171263
0.160489
0.150185
0.140347
0.130969
0.122047
0.113572
0.105537
0.0979315
0.0907451
0.0839646
0.0775753
0.07156
0.0658995
0.0605718
0.0555528
0.0508156
0.0463315
0.0420695
0.0379977
0.0340837
0.0302954
0.026602
0.022976
0.0193918
0.0158335
0.0122736
0.008746
0.00512134
0.00184891
2.46637
2.46244
2.45795
2.45341
2.44894
2.44427
2.43939
2.43438
2.42926
2.42401
2.41862
2.41308
2.40741
2.40158
2.39561
2.38948
2.3832
2.37675
2.37013
2.36335
2.35639
2.34925
2.34194
2.33443
2.32674
2.31885
2.31076
2.30247
2.29397
2.28526
2.27634
2.26719
2.25781
2.24821
2.23837
2.22829
2.21796
2.20739
2.19656
2.18547
2.17413
2.16251
2.15062
2.13846
2.12601
2.11328
2.10026
2.08694
2.07333
2.05942
2.0452
2.03067
2.01583
2.00067
1.9852
1.9694
1.95328
1.93683
1.92005
1.90295
1.8855
1.86773
1.84962
1.83118
1.8124
1.79329
1.77384
1.75407
1.73396
1.71352
1.69276
1.67167
1.65027
1.62855
1.60652
1.58419
1.56157
1.53865
1.51545
1.49197
1.46823
1.44423
1.41998
1.3955
1.3708
1.34589
1.32077
1.29547
1.27
1.24437
1.21861
1.19271
1.16671
1.14062
1.11446
1.08824
1.06198
1.03571
1.00944
0.983198
0.956995
0.930855
0.904799
0.878848
0.853023
0.827345
0.801834
0.776511
0.751398
0.726515
0.701882
0.677519
0.653446
0.629682
0.606246
0.583155
0.560428
0.538081
0.516131
0.494593
0.473482
0.452811
0.432593
0.412841
0.393565
0.374776
0.356483
0.338694
0.321416
0.304655
0.288417
0.272704
0.257521
0.24287
0.228751
0.215165
0.202111
0.189588
0.177593
0.166122
0.155173
0.144739
0.134815
0.125393
0.116465
0.10802
0.100048
0.0925336
0.0854618
0.0788136
0.0725675
0.0666991
0.0611804
0.0559806
0.051066
0.0464004
0.0419458
0.0376634
0.0335151
0.0294641
0.0254776
0.0215254
0.0175902
0.0136385
0.00971999
0.0056609
0.00209091
2.71155
2.7073
2.70245
2.69757
2.69278
2.68776
2.68251
2.67711
2.67159
2.66593
2.66011
2.65414
2.64801
2.64171
2.63525
2.62862
2.62181
2.61482
2.60765
2.60029
2.59274
2.58499
2.57704
2.56889
2.56052
2.55193
2.54313
2.5341
2.52484
2.51534
2.5056
2.49561
2.48537
2.47488
2.46412
2.4531
2.44181
2.43023
2.41838
2.40623
2.3938
2.38106
2.36802
2.35467
2.34101
2.32703
2.31272
2.29809
2.28313
2.26782
2.25218
2.23619
2.21985
2.20316
2.18611
2.1687
2.15093
2.1328
2.11429
2.09542
2.07618
2.05656
2.03657
2.0162
1.99546
1.97435
1.95287
1.93101
1.90879
1.8862
1.86325
1.83993
1.81627
1.79225
1.76789
1.7432
1.71817
1.69282
1.66716
1.64119
1.61493
1.58839
1.56157
1.53449
1.50717
1.47962
1.45185
1.42387
1.39571
1.36739
1.3389
1.31029
1.28156
1.25273
1.22383
1.19487
1.16588
1.13688
1.10788
1.07892
1.05
1.02117
0.992431
0.963816
0.935347
0.907046
0.878937
0.851041
0.823383
0.795985
0.768869
0.742056
0.715569
0.689428
0.663654
0.638266
0.613283
0.588724
0.564606
0.540946
0.51776
0.495062
0.472867
0.451186
0.430034
0.409418
0.389351
0.36984
0.350892
0.332515
0.314713
0.29749
0.28085
0.264794
0.249324
0.23444
0.22014
0.206424
0.193288
0.180729
0.168744
0.157325
0.146468
0.136165
0.126408
0.117186
0.108488
0.100299
0.0926023
0.0853779
0.0786023
0.0722484
0.066285
0.0606769
0.0553853
0.0503679
0.0455805
0.0409772
0.036513
0.0321445
0.0278331
0.0235436
0.0192572
0.0149342
0.0106426
0.00615955
0.00232176
2.95196
2.94745
2.94231
2.93717
2.93212
2.92682
2.92126
2.91554
2.90969
2.90368
2.8975
2.89115
2.88463
2.87793
2.87105
2.86397
2.85671
2.84925
2.84158
2.83371
2.82563
2.81733
2.8088
2.80005
2.79107
2.78184
2.77237
2.76266
2.75268
2.74245
2.73194
2.72117
2.71012
2.69878
2.68715
2.67522
2.663
2.65046
2.63761
2.62444
2.61095
2.59712
2.58296
2.56845
2.55359
2.53838
2.52281
2.50688
2.49057
2.47389
2.45683
2.43939
2.42156
2.40333
2.38471
2.36569
2.34626
2.32643
2.30619
2.28554
2.26448
2.243
2.22111
2.19881
2.17608
2.15295
2.1294
2.10544
2.08108
2.05631
2.03113
2.00556
1.9796
1.95326
1.92653
1.89944
1.87198
1.84416
1.81601
1.78752
1.75871
1.72959
1.70017
1.67047
1.64051
1.61029
1.57984
1.54917
1.5183
1.48725
1.45604
1.42469
1.39323
1.36166
1.33001
1.29832
1.26659
1.23486
1.20315
1.17148
1.13987
1.10836
1.07697
1.04572
1.01464
0.983746
0.953075
0.922648
0.892489
0.862622
0.833072
0.803863
0.775016
0.746556
0.718503
0.690879
0.663705
0.636998
0.61078
0.585066
0.559874
0.535219
0.511117
0.48758
0.464621
0.442251
0.42048
0.399317
0.37877
0.358846
0.339548
0.320882
0.30285
0.285455
0.268697
0.252575
0.237089
0.222236
0.208014
0.194419
0.181447
0.169092
0.157348
0.146208
0.135664
0.125706
0.116322
0.107497
0.0992139
0.091452
0.0841862
0.0773866
0.0710188
0.0650431
0.0594152
0.0540867
0.0490058
0.0441194
0.0393744
0.0347202
0.0301116
0.0255079
0.0208888
0.0162082
0.0115546
0.00665238
0.00256118
3.19664
3.19181
3.18628
3.18079
3.17541
3.16973
3.16378
3.15764
3.15137
3.14493
3.1383
3.13148
3.12448
3.11727
3.10987
3.10226
3.09444
3.08641
3.07815
3.06966
3.06094
3.05199
3.04279
3.03333
3.02363
3.01366
3.00342
2.99291
2.98211
2.97103
2.95965
2.94798
2.936
2.9237
2.91109
2.89815
2.88488
2.87126
2.8573
2.84299
2.82832
2.81329
2.79788
2.7821
2.76593
2.74937
2.73242
2.71506
2.6973
2.67912
2.66052
2.64151
2.62206
2.60218
2.58187
2.56111
2.53992
2.51827
2.49618
2.47364
2.45064
2.42719
2.40328
2.37892
2.35411
2.32884
2.30312
2.27695
2.25034
2.22329
2.19579
2.16787
2.13952
2.11075
2.08157
2.05198
2.02201
1.99165
1.96092
1.92984
1.89841
1.86664
1.83456
1.80219
1.76952
1.73659
1.70342
1.67002
1.63641
1.60261
1.56865
1.53455
1.50032
1.46601
1.43162
1.39719
1.36274
1.3283
1.29388
1.25953
1.22527
1.19112
1.15711
1.12327
1.08962
1.0562
1.02303
0.990133
0.957542
0.92528
0.893374
0.861848
0.830726
0.800034
0.769793
0.740025
0.710753
0.681997
0.653776
0.626108
0.599011
0.572502
0.546594
0.521303
0.49664
0.472618
0.449245
0.426532
0.404486
0.383112
0.362416
0.342403
0.323073
0.304429
0.286471
0.269198
0.252608
0.2367
0.221469
0.206912
0.193024
0.179799
0.167233
0.155318
0.144045
0.133407
0.12339
0.113982
0.105164
0.0969153
0.0892094
0.0820143
0.0752922
0.068999
0.0630846
0.0574937
0.052167
0.0470425
0.0420588
0.0371567
0.0322841
0.0273939
0.0224644
0.0174429
0.0124405
0.00712615
0.0027978
3.43957
3.43441
3.42852
3.4227
3.41699
3.41096
3.40462
3.39809
3.39141
3.38454
3.37748
3.3702
3.36272
3.35502
3.34711
3.33898
3.33061
3.32201
3.31316
3.30407
3.29472
3.28511
3.27524
3.26509
3.25466
3.24394
3.23293
3.22162
3.21
3.19807
3.18581
3.17323
3.16031
3.14705
3.13344
3.11946
3.10513
3.09042
3.07534
3.05986
3.044
3.02773
3.01105
2.99396
2.97645
2.95852
2.94014
2.92133
2.90207
2.88236
2.86218
2.84155
2.82045
2.79887
2.77682
2.75428
2.73126
2.70775
2.68375
2.65926
2.63427
2.60879
2.58281
2.55634
2.52937
2.50191
2.47396
2.44552
2.4166
2.3872
2.35732
2.32698
2.29618
2.26492
2.23323
2.2011
2.16856
2.1356
2.10225
2.06851
2.03441
1.99996
1.96517
1.93007
1.89467
1.859
1.82307
1.7869
1.75053
1.71396
1.67723
1.64036
1.60338
1.56631
1.52919
1.49202
1.45486
1.41772
1.38063
1.34362
1.30672
1.26996
1.23338
1.19699
1.16083
1.12492
1.0893
1.054
1.01904
0.984449
0.950256
0.916485
0.883164
0.850317
0.817968
0.78614
0.754855
0.724135
0.693999
0.664466
0.635554
0.607279
0.579657
0.552702
0.526427
0.500842
0.475958
0.451783
0.428325
0.405589
0.383581
0.362302
0.341757
0.321944
0.302864
0.284515
0.266894
0.25
0.233827
0.218372
0.203629
0.189593
0.176259
0.16362
0.151668
0.140396
0.129792
0.119844
0.110534
0.101841
0.0937381
0.0861907
0.0791582
0.0725919
0.0664358
0.0606273
0.0550982
0.0497776
0.0445941
0.0394794
0.0343733
0.0292218
0.0240017
0.0186534
0.0133125
0.0075905
0.0030365
3.68686
3.68132
3.675
3.66877
3.66268
3.65623
3.64945
3.64246
3.6353
3.62795
3.62037
3.61257
3.60454
3.59628
3.58779
3.57905
3.57006
3.56081
3.5513
3.54151
3.53145
3.52111
3.51047
3.49954
3.4883
3.47675
3.46487
3.45267
3.44013
3.42725
3.41402
3.40043
3.38647
3.37214
3.35742
3.34232
3.32681
3.3109
3.29458
3.27783
3.26065
3.24304
3.22498
3.20647
3.1875
3.16806
3.14815
3.12776
3.10688
3.0855
3.06363
3.04125
3.01836
2.99496
2.97104
2.94659
2.92162
2.89612
2.87008
2.84351
2.8164
2.78876
2.76058
2.73187
2.70262
2.67284
2.64253
2.61169
2.58034
2.54847
2.51609
2.48322
2.44985
2.41601
2.38169
2.34691
2.31169
2.27603
2.23996
2.20349
2.16663
2.12941
2.09184
2.05394
2.01574
1.97726
1.93852
1.89954
1.86035
1.82098
1.78145
1.74179
1.70202
1.66219
1.62231
1.58241
1.54254
1.50271
1.46295
1.42331
1.38381
1.34448
1.30535
1.26646
1.22783
1.1895
1.1515
1.11385
1.07659
1.03975
1.00334
0.967411
0.931976
0.897063
0.862697
0.828902
0.795701
0.763114
0.731162
0.699865
0.66924
0.639303
0.61007
0.581554
0.553768
0.526723
0.500428
0.474892
0.450122
0.426122
0.402896
0.380448
0.358778
0.337887
0.317772
0.298431
0.279862
0.26206
0.24502
0.228738
0.213208
0.198425
0.184383
0.171077
0.1585
0.146645
0.135503
0.125062
0.115305
0.106213
0.0977568
0.0899021
0.0826047
0.0758115
0.0694603
0.0634803
0.0577944
0.0523211
0.0469785
0.0416877
0.0363797
0.030993
0.0255022
0.0198411
0.0141714
0.00804546
0.00327614
3.93471
3.92879
3.92203
3.91539
3.9089
3.90202
3.89477
3.8873
3.87966
3.8718
3.86369
3.85534
3.84675
3.83791
3.82881
3.81944
3.8098
3.79989
3.78968
3.77918
3.76838
3.75727
3.74584
3.73409
3.72201
3.70958
3.69681
3.68368
3.67018
3.65631
3.64206
3.62742
3.61237
3.59692
3.58105
3.56476
3.54803
3.53086
3.51324
3.49516
3.47661
3.45759
3.43808
3.41808
3.39758
3.37657
3.35504
3.333
3.31042
3.28731
3.26365
3.23945
3.2147
3.18938
3.1635
3.13706
3.11005
3.08246
3.05429
3.02555
2.99624
2.96634
2.93586
2.90481
2.87319
2.841
2.80823
2.77491
2.74103
2.70661
2.67164
2.63614
2.60013
2.5636
2.52657
2.48907
2.45109
2.41266
2.3738
2.33452
2.29484
2.25479
2.21438
2.17363
2.13258
2.09125
2.04965
2.00783
1.9658
1.92359
1.88124
1.83877
1.79622
1.75362
1.71099
1.66837
1.6258
1.5833
1.54091
1.49867
1.4566
1.41474
1.37312
1.33177
1.29074
1.25005
1.20972
1.1698
1.13032
1.0913
1.05277
1.01476
0.977294
0.940406
0.904116
0.868449
0.833428
0.799073
0.765406
0.732444
0.700206
0.668707
0.637963
0.607987
0.578791
0.550385
0.522778
0.495978
0.46999
0.44482
0.420471
0.396943
0.374237
0.352353
0.331286
0.311035
0.291595
0.27296
0.255125
0.238084
0.221831
0.206362
0.191669
0.177749
0.164597
0.152205
0.140569
0.129676
0.119514
0.110062
0.101294
0.0931736
0.0856537
0.0786769
0.0721745
0.0660675
0.0602685
0.0546847
0.0492226
0.0437915
0.0383125
0.0327155
0.026973
0.0210118
0.0150216
0.0084939
0.00351739
4.187
4.18064
4.17338
4.16629
4.15934
4.15198
4.14422
4.13622
4.12802
4.1196
4.11091
4.10195
4.09273
4.08324
4.07347
4.06341
4.05305
4.0424
4.03143
4.02014
4.00852
3.99657
3.98427
3.97162
3.95861
3.94522
3.93146
3.91731
3.90277
3.88781
3.87244
3.85665
3.84042
3.82375
3.80663
3.78904
3.77098
3.75244
3.73342
3.71389
3.69385
3.6733
3.65222
3.63061
3.60845
3.58575
3.56249
3.53866
3.51425
3.48927
3.4637
3.43754
3.41078
3.38342
3.35545
3.32687
3.29767
3.26786
3.23743
3.20637
3.1747
3.14241
3.1095
3.07598
3.04184
3.00709
2.97174
2.93579
2.89926
2.86214
2.82446
2.78621
2.74742
2.70809
2.66824
2.62789
2.58705
2.54575
2.50399
2.46181
2.41922
2.37624
2.33291
2.28924
2.24527
2.20102
2.15652
2.11179
2.06688
2.0218
1.9766
1.9313
1.88594
1.84056
1.79518
1.74984
1.70458
1.65943
1.61443
1.56961
1.525
1.48065
1.43659
1.39285
1.34947
1.30647
1.2639
1.22178
1.18014
1.13903
1.09846
1.05846
1.01906
0.980292
0.942176
0.904736
0.867995
0.831974
0.796694
0.762172
0.728425
0.69547
0.66332
0.631987
0.601484
0.57182
0.543002
0.515038
0.487932
0.461689
0.436309
0.411795
0.388144
0.365354
0.343423
0.322344
0.302112
0.28272
0.264163
0.246432
0.229522
0.213427
0.198141
0.18366
0.169981
0.157099
0.145011
0.133708
0.12318
0.113408
0.104366
0.0960191
0.0883172
0.0811987
0.074588
0.0683974
0.0625284
0.056876
0.0513335
0.0457976
0.040178
0.0343954
0.0284194
0.02217
0.0158662
0.0089379
0.00376041
4.44153
4.4347
4.42692
4.41934
4.41192
4.40404
4.39573
4.38717
4.37839
4.36937
4.36006
4.35046
4.34057
4.33039
4.31991
4.30912
4.298
4.28656
4.27478
4.26265
4.25017
4.23732
4.2241
4.21049
4.1965
4.1821
4.16729
4.15206
4.1364
4.1203
4.10374
4.08673
4.06925
4.05128
4.03282
4.01386
3.99439
3.9744
3.95388
3.93282
3.91121
3.88904
3.86629
3.84297
3.81907
3.79457
3.76946
3.74374
3.71741
3.69045
3.66285
3.63462
3.60574
3.57622
3.54604
3.5152
3.48371
3.45155
3.41873
3.38525
3.3511
3.31629
3.28083
3.24471
3.20793
3.17052
3.13246
3.09377
3.05447
3.01455
2.97403
2.93293
2.89125
2.84902
2.80625
2.76296
2.71916
2.67489
2.63015
2.58499
2.53941
2.49345
2.44713
2.40048
2.35353
2.30632
2.25886
2.21121
2.16338
2.11541
2.06734
2.0192
1.97103
1.92287
1.87475
1.82671
1.77878
1.73101
1.68343
1.63607
1.58899
1.5422
1.49575
1.44968
1.40401
1.35878
1.31404
1.2698
1.2261
1.18298
1.14046
1.09857
1.05733
1.01678
0.97694
0.93783
0.899474
0.861892
0.825104
0.789128
0.753979
0.719672
0.68622
0.653636
0.621929
0.591107
0.561179
0.53215
0.504023
0.476801
0.450485
0.425074
0.400567
0.376958
0.354244
0.332418
0.311473
0.2914
0.272191
0.253838
0.236334
0.219672
0.203847
0.188856
0.174697
0.161368
0.148867
0.137192
0.126333
0.116276
0.106997
0.0984593
0.0906132
0.0833923
0.0767142
0.0704815
0.0645843
0.0589039
0.0533193
0.0477132
0.0419829
0.0360386
0.0298466
0.0233198
0.0167082
0.00937932
0.00400523
4.70064
4.6933
4.68495
4.67683
4.66888
4.66045
4.65154
4.64236
4.63295
4.62327
4.61328
4.60298
4.59237
4.58144
4.57018
4.55859
4.54664
4.53434
4.52168
4.50864
4.49521
4.48139
4.46717
4.45253
4.43746
4.42196
4.40602
4.38962
4.37275
4.3554
4.33756
4.31923
4.30038
4.28102
4.26112
4.24068
4.21968
4.19812
4.17599
4.15327
4.12996
4.10604
4.08151
4.05635
4.03056
4.00413
3.97704
3.9493
3.92089
3.89181
3.86204
3.8316
3.80045
3.76862
3.73608
3.70284
3.66889
3.63424
3.59888
3.56282
3.52604
3.48857
3.4504
3.41153
3.37197
3.33174
3.29083
3.24926
3.20704
3.16418
3.12069
3.0766
3.03191
2.98665
2.94083
2.89448
2.84762
2.80028
2.75246
2.70422
2.65556
2.60653
2.55715
2.50745
2.45746
2.40722
2.35677
2.30614
2.25536
2.20447
2.15351
2.10252
2.05153
2.00059
1.94974
1.89901
1.84844
1.79807
1.74795
1.6981
1.64857
1.5994
1.55063
1.50228
1.4544
1.40703
1.36019
1.31391
1.26824
1.2232
1.17882
1.13513
1.09216
1.04993
1.00847
0.96779
0.927924
0.888888
0.850699
0.813374
0.776929
0.741377
0.706729
0.672997
0.640189
0.608312
0.577374
0.547377
0.518324
0.490218
0.463057
0.43684
0.411563
0.387221
0.363807
0.341313
0.31973
0.299048
0.279258
0.260349
0.242313
0.225142
0.208832
0.19338
0.178785
0.165049
0.152174
0.14016
0.129004
0.118694
0.109209
0.100515
0.09256
0.0852735
0.0785665
0.0723316
0.0664461
0.060777
0.0551877
0.0495451
0.0437331
0.0376504
0.0312593
0.0244651
0.0175503
0.00981985
0.00425178
4.96312
4.95525
4.94629
4.93759
4.92909
4.92005
4.9105
4.90066
4.89058
4.8802
4.86948
4.85843
4.84705
4.83532
4.82323
4.81078
4.79796
4.78474
4.77114
4.75712
4.74269
4.72783
4.71254
4.69679
4.68058
4.66391
4.64675
4.62909
4.61093
4.59226
4.57305
4.55331
4.53301
4.51215
4.49071
4.46869
4.44607
4.42284
4.39899
4.37451
4.34938
4.3236
4.29716
4.27005
4.24225
4.21376
4.18458
4.15468
4.12407
4.09273
4.06066
4.02786
3.99432
3.96003
3.925
3.88921
3.85267
3.81538
3.77734
3.73855
3.69901
3.65872
3.6177
3.57595
3.53347
3.49028
3.44638
3.40179
3.35653
3.3106
3.26402
3.21682
3.169
3.1206
3.07163
3.02212
2.97209
2.92157
2.8706
2.81919
2.76738
2.7152
2.66269
2.60988
2.55681
2.50351
2.45002
2.39638
2.34263
2.28881
2.23495
2.18111
2.12731
2.07361
2.02004
1.96665
1.91347
1.86055
1.80793
1.75564
1.70374
1.65225
1.60122
1.55068
1.50066
1.45122
1.40237
1.35415
1.3066
1.25974
1.21361
1.16822
1.12362
1.07981
1.03683
0.994695
0.953428
0.913045
0.873564
0.834999
0.797365
0.760674
0.724935
0.690159
0.656352
0.62352
0.591669
0.560801
0.530917
0.502018
0.474102
0.447165
0.421204
0.39621
0.372175
0.349091
0.326945
0.305726
0.285422
0.266021
0.247513
0.22989
0.213146
0.197278
0.18229
0.168186
0.15497
0.142649
0.131225
0.120691
0.11103
0.102209
0.0941769
0.0868589
0.080159
0.0739595
0.0681241
0.0625042
0.056946
0.0512999
0.0454344
0.0392356
0.0326613
0.0256092
0.0183948
0.0102609
0.00449979
5.23039
5.22192
5.2123
5.20299
5.19387
5.18419
5.17395
5.1634
5.15259
5.14145
5.12995
5.11809
5.10587
5.09328
5.0803
5.06692
5.05314
5.03894
5.02432
5.00925
4.99374
4.97776
4.9613
4.94437
4.92693
4.90898
4.89052
4.87151
4.85196
4.83186
4.81118
4.78991
4.76805
4.74558
4.72249
4.69877
4.6744
4.64937
4.62367
4.59729
4.57022
4.54245
4.51396
4.48475
4.4548
4.42411
4.39267
4.36047
4.3275
4.29376
4.25923
4.22392
4.18781
4.15092
4.11322
4.07473
4.03544
3.99534
3.95446
3.91278
3.87031
3.82705
3.78302
3.73822
3.69267
3.64636
3.59933
3.55157
3.50311
3.45397
3.40416
3.35371
3.30264
3.25097
3.19873
3.14594
3.09264
3.03885
2.98461
2.92995
2.87491
2.81952
2.76381
2.70783
2.65162
2.59521
2.53865
2.48197
2.42523
2.36845
2.3117
2.255
2.1984
2.14196
2.0857
2.02967
1.97393
1.9185
1.86343
1.80877
1.75454
1.7008
1.64759
1.59493
1.54287
1.49144
1.44067
1.39061
1.34127
1.29269
1.2449
1.19793
1.15179
1.10652
1.06213
1.01865
0.976086
0.934465
0.893799
0.854102
0.815386
0.777661
0.740935
0.705217
0.670511
0.636823
0.604156
0.57251
0.541887
0.512284
0.483699
0.456127
0.429562
0.403996
0.379418
0.355817
0.33318
0.311493
0.290741
0.27091
0.251989
0.233966
0.216837
0.2006
0.185258
0.170819
0.157295
0.144695
0.133029
0.122296
0.112485
0.103564
0.0954836
0.0881653
0.0815061
0.0753773
0.0696284
0.0640937
0.0586014
0.0529833
0.0470916
0.0407986
0.0340564
0.0267548
0.0192435
0.0107036
0.00474883
5.50179
5.4927
5.48238
5.4724
5.46264
5.45226
5.44129
5.42998
5.41839
5.40644
5.39411
5.38138
5.36827
5.35475
5.34082
5.32646
5.31166
5.29641
5.28069
5.2645
5.24783
5.23065
5.21296
5.19475
5.176
5.1567
5.13683
5.11639
5.09535
5.07371
5.05146
5.02857
5.00504
4.98085
4.95599
4.93045
4.90422
4.87727
4.8496
4.8212
4.79205
4.76215
4.73148
4.70003
4.66779
4.63476
4.60092
4.56626
4.53078
4.49448
4.45734
4.41936
4.38054
4.34087
4.30036
4.259
4.21679
4.17374
4.12985
4.08512
4.03956
3.99317
3.94598
3.89798
3.84919
3.79963
3.74931
3.69824
3.64645
3.59396
3.54079
3.48697
3.43252
3.37746
3.32184
3.26567
3.209
3.15185
3.09426
3.03628
2.97793
2.91925
2.8603
2.8011
2.74171
2.68216
2.6225
2.56277
2.50302
2.4433
2.38365
2.32411
2.26474
2.20558
2.14667
2.08806
2.02979
1.97191
1.91445
1.85748
1.80101
1.7451