/*--------------------------------*- C++ -*----------------------------------*\
  =========                 |
  \\      /  F ield         | OpenFOAM: The Open Source CFD Toolbox
   \\    /   O peration     | Website:  https://openfoam.org
    \\  /    A nd           | Version:  13
     \\/     M anipulation  |
\*---------------------------------------------------------------------------*/
FoamFile
{
    format      ascii;
    class       surfaceScalarField;
    location    "0.15";
    object      phi;
}
// * * * * * * * * * * * * * * * * * * * * * * * * * * * * * * * * * * * * * //

dimensions      [0 3 -1 0 0 0 0];

internalField   nonuniform List<scalar> 
137229
(
14.3657
-0.00034832
-14.3685
14.3628
-0.000355636
14.3599
-0.000363361
14.357
-0.000370745
14.354
-0.000378663
14.3509
-0.000386921
14.3477
-0.000395403
14.3445
-0.000404187
14.3413
-0.000413213
14.338
-0.000422515
14.3346
-0.000432068
14.3311
-0.000441967
14.3276
-0.0004521
14.324
-0.000462562
14.3203
-0.000473363
14.3166
-0.000484421
14.3128
-0.000495866
14.3089
-0.000507649
14.3049
-0.000519752
14.3009
-0.000532248
14.2968
-0.000545089
14.2926
-0.00055832
14.2883
-0.000571957
14.2839
-0.000585985
14.2795
-0.000600423
14.275
-0.000615289
14.2703
-0.000630601
14.2656
-0.00064635
14.2608
-0.000662558
14.2559
-0.000679246
14.2509
-0.000696379
14.2458
-0.00071407
14.2406
-0.000732225
14.2353
-0.00075087
14.2298
-0.000770124
14.2243
-0.000789835
14.2187
-0.000810153
14.2129
-0.000831048
14.2071
-0.000852462
14.2011
-0.000874519
14.195
-0.000897132
14.1888
-0.000920397
14.1824
-0.00094429
14.1759
-0.000968758
14.1693
-0.00099396
14.1626
-0.00101975
14.1557
-0.00104624
14.1487
-0.00107341
14.1416
-0.00110129
14.1343
-0.00112981
14.1268
-0.00115908
14.1192
-0.00118905
14.1115
-0.00121977
14.1036
-0.00125119
14.0955
-0.00128337
14.0873
-0.00131629
14.0789
-0.00134994
14.0704
-0.00138437
14.0616
-0.00141953
14.0527
-0.00145545
14.0436
-0.00149216
14.0344
-0.00152956
14.0249
-0.00156781
14.0152
-0.00160673
14.0054
-0.00164643
13.9953
-0.00168689
13.9851
-0.00172806
13.9746
-0.00176995
13.9639
-0.00181257
13.953
-0.00185588
13.9419
-0.00189988
13.9306
-0.00194451
13.919
-0.00198979
13.9072
-0.00203573
13.8951
-0.00208222
13.8828
-0.00212928
13.8703
-0.00217691
13.8574
-0.00222498
13.8444
-0.00227354
13.831
-0.00232252
13.8174
-0.00237186
13.8035
-0.00242152
13.7893
-0.00247147
13.7748
-0.00252161
13.7601
-0.00257194
13.745
-0.00262232
13.7296
-0.00267275
13.7139
-0.0027231
13.6979
-0.00277339
13.6815
-0.00282339
13.6648
-0.00287312
13.6478
-0.00292248
13.6304
-0.00297131
13.6126
-0.00301961
13.5945
-0.00306716
13.576
-0.00311392
13.5571
-0.00315973
13.5378
-0.00320453
13.5181
-0.0032481
13.498
-0.00329037
13.4775
-0.0033312
13.4566
-0.0033704
13.4352
-0.00340783
13.4134
-0.00344337
13.3911
-0.00347679
13.3684
-0.003508
13.3452
-0.00353673
13.3215
-0.00356286
13.2973
-0.0035862
13.2726
-0.0036065
13.2474
-0.00362363
13.2216
-0.00363734
13.1953
-0.00364741
13.1685
-0.00365365
13.1411
-0.0036558
13.1131
-0.0036537
13.0845
-0.00364699
13.0554
-0.00363552
13.0256
-0.00361903
12.9952
-0.00359725
12.9641
-0.00356991
12.9324
-0.00353678
12.9
-0.00349755
12.8669
-0.00345197
12.8331
-0.00339974
12.7986
-0.0033406
12.7634
-0.00327422
12.7274
-0.00320032
12.6907
-0.00311862
12.6531
-0.00302878
12.6148
-0.00293056
12.5756
-0.00282354
12.5357
-0.00270744
12.4948
-0.00258201
12.4531
-0.00244683
12.4105
-0.00230159
12.3669
-0.00214595
12.3225
-0.00197963
12.2771
-0.00180219
12.2307
-0.00161331
12.1833
-0.00141266
12.1349
-0.00119988
12.0854
-0.00097456
12.0349
-0.00073634
11.9832
-0.000484862
11.9305
-0.00021973
11.8766
5.94812e-05
11.8215
0.00035318
11.7653
0.000661757
11.7078
0.000985697
11.6491
0.00132544
11.5891
0.00168147
11.5278
0.00205427
11.4651
0.00244437
11.4011
0.00285235
11.3357
0.0032788
11.2689
0.00372428
11.2006
0.00418959
11.1308
0.00467525
11.0594
0.0051822
10.9865
0.0057111
10.912
0.00626285
10.8359
0.00683841
10.7581
0.00743848
10.6786
0.00806509
10.5973
0.00871504
0.00940686
13.6793
0.00220796
-13.6819
13.6767
0.00225089
13.674
0.00229453
13.6713
0.00233951
13.6686
0.00238504
13.6657
0.00243137
13.6629
0.00247856
13.6599
0.00252664
13.657
0.00257565
13.6539
0.00262555
13.6508
0.00267642
13.6476
0.00272827
13.6444
0.00278111
13.6411
0.0028349
13.6377
0.00288974
13.6343
0.00294564
13.6308
0.00300258
13.6272
0.00306059
13.6236
0.00311973
13.6199
0.00317999
13.6161
0.00324138
13.6122
0.00330393
13.6083
0.00336769
13.6043
0.00343261
13.6002
0.00349886
13.596
0.00356627
13.5917
0.00363505
13.5874
0.0037051
13.5829
0.00377648
13.5784
0.00384924
13.5738
0.0039234
13.5691
0.00399897
13.5643
0.00407599
13.5594
0.00415452
13.5544
0.00423452
13.5493
0.00431607
13.544
0.00439925
13.5387
0.00448399
13.5333
0.00457038
13.5278
0.00465849
13.5221
0.00474827
13.5164
0.00483984
13.5105
0.00493321
13.5045
0.00502842
13.4984
0.00512551
13.4921
0.00522452
13.4858
0.00532552
13.4793
0.0054285
13.4726
0.00553359
13.4658
0.00564078
13.4589
0.00575013
13.4519
0.00586171
13.4447
0.00597559
13.4374
0.00609177
13.4299
0.00621039
13.4222
0.00633146
13.4144
0.00645504
13.4064
0.00658125
13.3983
0.00671007
13.39
0.00684163
13.3815
0.00697605
13.3729
0.00711333
13.3641
0.00725359
13.3551
0.0073969
13.3459
0.00754336
13.3365
0.00769305
13.3269
0.00784605
13.3172
0.00800251
13.3072
0.00816252
13.297
0.00832613
13.2866
0.00849349
13.276
0.00866475
13.2652
0.00883997
13.2541
0.00901931
13.2428
0.0092029
13.2313
0.00939088
13.2196
0.00958335
13.2075
0.00978049
13.1953
0.00998247
13.1828
0.0101894
13.17
0.0104015
13.157
0.0106189
13.1436
0.0108418
13.1301
0.0110703
13.1162
0.0113047
13.102
0.0115452
13.0875
0.0117919
13.0728
0.0120452
13.0577
0.0123051
13.0423
0.012572
13.0266
0.012846
13.0105
0.0131274
12.9942
0.0134165
12.9774
0.0137136
12.9603
0.0140188
12.9429
0.0143326
12.9251
0.014655
12.9069
0.0149866
12.8883
0.0153276
12.8693
0.0156783
12.85
0.0160391
12.8302
0.0164102
12.81
0.0167921
12.7894
0.017185
12.7683
0.0175895
12.7468
0.0180058
12.7248
0.0184344
12.7024
0.0188757
12.6794
0.01933
12.656
0.0197978
12.6321
0.0202797
12.6077
0.0207759
12.5828
0.0212871
12.5573
0.0218136
12.5313
0.022356
12.5047
0.0229147
12.4776
0.0234903
12.4499
0.0240834
12.4216
0.0246944
12.3927
0.0253239
12.3631
0.0259725
12.3329
0.0266408
12.3021
0.0273293
12.2706
0.0280387
12.2384
0.0287696
12.2056
0.0295226
12.172
0.0302983
12.1377
0.0310975
12.1027
0.0319209
12.0669
0.0327689
12.0303
0.0336425
11.9929
0.0345423
11.9548
0.035469
11.9158
0.0364235
11.8759
0.0374064
11.8352
0.0384184
11.7936
0.0394605
11.7511
0.0405334
11.7076
0.0416379
11.6632
0.0427749
11.6179
0.0439452
11.5715
0.0451496
11.5242
0.0463891
11.4758
0.0476646
11.4263
0.048977
11.3758
0.0503272
11.3241
0.0517162
11.2713
0.0531449
11.2174
0.0546145
11.1622
0.0561259
11.1059
0.0576802
11.0483
0.0592786
10.9894
0.0609222
10.9292
0.0626121
10.8677
0.0643496
10.8049
0.0661361
10.7406
0.0679728
10.675
0.0698612
10.6078
0.0718027
10.5392
0.073799
10.4691
0.0758515
10.3974
0.077962
10.3241
0.0801324
10.2491
0.0823642
10.1726
0.0846603
10.0942
0.0870195
0.0894582
13.0212
0.0045416
-13.0235
13.0188
0.00463117
13.0164
0.00472239
13.0139
0.00481593
13.0114
0.00491107
13.0088
0.00500802
13.0062
0.0051069
13.0035
0.0052078
13.0008
0.00531067
12.998
0.00541563
12.9951
0.0055227
12.9922
0.00563192
12.9893
0.00574331
12.9862
0.00585699
12.9832
0.00597291
12.98
0.00609117
12.9768
0.00621184
12.9735
0.0063349
12.9702
0.00646045
12.9668
0.00658856
12.9633
0.0067192
12.9598
0.00685255
12.9561
0.00698851
12.9524
0.00712727
12.9487
0.00726882
12.9448
0.00741325
12.9409
0.00756055
12.9369
0.0077109
12.9328
0.00786426
12.9286
0.00802074
12.9244
0.00818039
12.92
0.00834332
12.9156
0.00850954
12.9111
0.00867915
12.9065
0.00885223
12.9017
0.00902881
12.8969
0.00920906
12.892
0.00939294
12.887
0.00958064
12.8819
0.00977218
12.8767
0.00996763
12.8714
0.0101671
12.8659
0.0103708
12.8604
0.0105786
12.8547
0.0107907
12.8489
0.0110072
12.843
0.0112283
12.837
0.0114539
12.8308
0.0116842
12.8246
0.0119194
12.8182
0.0121594
12.8116
0.0124045
12.8049
0.0126549
12.7981
0.0129104
12.7912
0.0131714
12.784
0.0134379
12.7768
0.01371
12.7694
0.0139881
12.7618
0.014272
12.7541
0.014562
12.7462
0.0148583
12.7382
0.015161
12.73
0.0154702
12.7216
0.0157862
12.713
0.016109
12.7043
0.0164389
12.6953
0.0167761
12.6862
0.0171207
12.6769
0.0174729
12.6674
0.017833
12.6577
0.0182011
12.6478
0.0185774
12.6376
0.0189622
12.6273
0.0193556
12.6168
0.019758
12.606
0.0201696
12.595
0.0205905
12.5837
0.0210211
12.5723
0.0214617
12.5605
0.0219124
12.5486
0.0223736
12.5363
0.0228456
12.5238
0.0233287
12.5111
0.0238231
12.4981
0.0243293
12.4848
0.0248474
12.4712
0.025378
12.4573
0.0259212
12.4431
0.0264776
12.4287
0.0270474
12.4139
0.027631
12.3988
0.028229
12.3833
0.0288415
12.3676
0.0294691
12.3515
0.0301122
12.3351
0.0307713
12.3183
0.0314469
12.3011
0.0321392
12.2836
0.032849
12.2657
0.0335767
12.2474
0.0343228
12.2287
0.0350878
12.2096
0.0358723
12.1902
0.0366768
12.1702
0.037502
12.1499
0.0383484
12.1291
0.0392167
12.1079
0.0401074
12.0862
0.0410213
12.064
0.0419589
12.0414
0.042921
12.0183
0.0439082
11.9946
0.0449214
11.9705
0.045961
11.9458
0.0470281
11.9206
0.0481234
11.8948
0.0492474
11.8685
0.0504013
11.8416
0.0515858
11.8142
0.0528016
11.7861
0.0540497
11.7574
0.055331
11.7281
0.0566464
11.6981
0.0579968
11.6675
0.0593831
11.6362
0.0608064
11.6042
0.0622676
11.5716
0.0637678
11.5382
0.0653079
11.5041
0.0668891
11.4692
0.0685125
11.4336
0.070179
11.3971
0.07189
11.3599
0.0736465
11.3219
0.0754496
11.283
0.0773007
11.2433
0.0792009
11.2026
0.0811516
11.1611
0.0831538
11.1187
0.0852091
11.0753
0.0873187
11.031
0.0894839
10.9857
0.0917062
10.9393
0.093987
10.892
0.0963277
10.8436
0.0987298
10.7941
0.101195
10.7435
0.103724
10.6918
0.10632
10.639
0.108983
10.5849
0.111716
10.5297
0.11452
10.4732
0.117396
10.4155
0.120348
10.3564
0.123376
10.2961
0.126483
10.2344
0.12967
10.1713
0.132941
10.1068
0.136296
10.0409
0.139739
9.97347
0.143272
9.90453
0.146897
9.83405
0.150618
9.76198
0.154435
9.68828
0.158355
9.61293
0.162374
0.166515
12.3969
0.00667552
-12.399
12.3947
0.00680842
12.3925
0.00694388
12.3902
0.00708264
12.3879
0.00722392
12.3856
0.00736802
12.3832
0.00751506
12.3807
0.00766511
12.3782
0.00781822
12.3756
0.0079745
12.373
0.00813394
12.3704
0.00829669
12.3676
0.00846276
12.3649
0.00863225
12.362
0.00880519
12.3591
0.00898174
12.3562
0.00916188
12.3532
0.00934575
12.3501
0.00953337
12.347
0.00972488
12.3438
0.00992037
12.3405
0.0101198
12.3372
0.0103234
12.3338
0.0105312
12.3303
0.0107433
12.3267
0.0109598
12.3231
0.0111808
12.3194
0.0114063
12.3157
0.0116365
12.3118
0.0118715
12.3079
0.0121114
12.3039
0.0123563
12.2998
0.0126062
12.2956
0.0128613
12.2913
0.0131218
12.2869
0.0133876
12.2825
0.0136591
12.278
0.0139362
12.2733
0.0142191
12.2686
0.0145079
12.2637
0.0148028
12.2588
0.0151039
12.2538
0.0154113
12.2486
0.0157252
12.2434
0.0160456
12.238
0.0163729
12.2325
0.0167071
12.2269
0.0170483
12.2212
0.0173968
12.2154
0.0177526
12.2094
0.0181161
12.2033
0.0184873
12.1971
0.0188664
12.1908
0.0192536
12.1843
0.0196491
12.1777
0.0200531
12.1709
0.0204658
12.164
0.0208873
12.157
0.021318
12.1498
0.021758
12.1424
0.0222076
12.1349
0.0226669
12.1273
0.0231362
12.1194
0.0236158
12.1115
0.0241059
12.1033
0.0246067
12.0949
0.0251186
12.0864
0.0256417
12.0777
0.0261764
12.0688
0.026723
12.0597
0.0272818
12.0505
0.0278529
12.041
0.0284369
12.0313
0.029034
12.0214
0.0296445
12.0113
0.0302688
12.001
0.0309072
11.9905
0.0315601
11.9797
0.0322279
11.9687
0.0329109
11.9575
0.0336096
11.946
0.0343243
11.9343
0.0350555
11.9223
0.0358037
11.91
0.0365691
11.8975
0.0373525
11.8848
0.038154
11.8717
0.0389744
11.8584
0.0398141
11.8448
0.0406735
11.8308
0.0415533
11.8166
0.042454
11.8021
0.043376
11.7872
0.0443201
11.772
0.0452868
11.7565
0.0462767
11.7407
0.0472905
11.7245
0.0483288
11.708
0.0493921
11.6911
0.0504814
11.6738
0.0515972
11.6561
0.0527402
11.6381
0.0539113
11.6197
0.055111
11.6008
0.0563404
11.5816
0.0576001
11.5619
0.0588909
11.5418
0.0602138
11.5212
0.0615695
11.5002
0.062959
11.4788
0.0643832
11.4568
0.0658429
11.4344
0.0673393
11.4115
0.0688732
11.3881
0.0704456
11.3642
0.0720577
11.3397
0.0737103
11.3147
0.0754048
11.2891
0.077142
11.263
0.0789232
11.2363
0.0807496
11.209
0.0826222
11.1811
0.0845424
11.1526
0.0865114
11.1235
0.0885305
11.0937
0.0906008
11.0632
0.0927239
11.0321
0.0949011
11.0003
0.0971338
10.9677
0.0994232
10.9345
0.101771
10.9005
0.104179
10.8657
0.106648
10.8302
0.10918
10.7938
0.111776
10.7567
0.114439
10.7187
0.117169
10.6799
0.119969
10.6402
0.12284
10.5997
0.125784
10.5582
0.128802
10.5158
0.131897
10.4724
0.135071
10.4281
0.138325
10.3827
0.141662
10.3364
0.145083
10.289
0.14859
10.2405
0.152186
10.191
0.155873
10.1403
0.159652
10.0885
0.163527
10.0355
0.167499
9.98133
0.171571
9.92593
0.175746
9.86928
0.180026
9.81135
0.184413
9.75211
0.18891
9.69153
0.193521
9.62958
0.198248
9.56623
0.203095
9.50143
0.208064
9.43517
0.213159
9.36741
0.218384
9.2981
0.223741
9.22722
0.229236
9.15472
0.234868
0.240659
11.8013
0.00863028
-11.8033
11.7994
0.00880336
11.7973
0.00897997
11.7952
0.00916066
11.7931
0.00934485
11.791
0.00953275
11.7887
0.00972455
11.7865
0.00992036
11.7842
0.0101202
11.7818
0.0103242
11.7794
0.0105324
11.777
0.010745
11.7745
0.010962
11.7719
0.0111835
11.7693
0.0114096
11.7667
0.0116404
11.764
0.0118761
11.7612
0.0121166
11.7584
0.0123622
11.7555
0.0126129
11.7525
0.0128689
11.7495
0.0131302
11.7464
0.0133969
11.7433
0.0136693
11.7401
0.0139473
11.7368
0.0142312
11.7335
0.0145211
11.7301
0.014817
11.7266
0.0151192
11.723
0.0154277
11.7194
0.0157427
11.7157
0.0160643
11.7119
0.0163927
11.708
0.016728
11.7041
0.0170705
11.7001
0.0174201
11.6959
0.0177772
11.6917
0.0181418
11.6874
0.0185141
11.6831
0.0188943
11.6786
0.0192827
11.674
0.0196792
11.6693
0.0200842
11.6646
0.0204979
11.6597
0.0209203
11.6547
0.0213518
11.6496
0.0217925
11.6444
0.0222426
11.6391
0.0227024
11.6337
0.023172
11.6282
0.0236518
11.6225
0.0241419
11.6167
0.0246425
11.6108
0.025154
11.6048
0.0256765
11.5986
0.0262103
11.5924
0.0267557
11.5859
0.027313
11.5794
0.0278824
11.5727
0.0284642
11.5658
0.0290587
11.5588
0.0296663
11.5517
0.0302872
11.5444
0.0309216
11.5369
0.0315701
11.5293
0.0322329
11.5215
0.0329103
11.5135
0.0336028
11.5054
0.0343105
11.4971
0.0350341
11.4886
0.0357738
11.4799
0.03653
11.471
0.0373032
11.462
0.0380936
11.4527
0.038902
11.4433
0.0397285
11.4336
0.0405737
11.4237
0.0414381
11.4136
0.0423221
11.4033
0.0432263
11.3928
0.0441511
11.382
0.045097
11.371
0.0460647
11.3597
0.0470547
11.3482
0.0480675
11.3365
0.0491037
11.3245
0.0501639
11.3122
0.0512488
11.2996
0.0523589
11.2868
0.0534951
11.2737
0.0546578
11.2603
0.0558478
11.2466
0.0570658
11.2326
0.0583126
11.2183
0.0595888
11.2037
0.0608953
11.1888
0.0622329
11.1735
0.0636024
11.1579
0.0650045
11.1419
0.0664402
11.1256
0.0679104
11.1089
0.0694159
11.0919
0.0709577
11.0745
0.0725367
11.0567
0.0741538
11.0385
0.0758102
11.0198
0.0775069
11.0008
0.0792448
10.9814
0.0810251
10.9615
0.0828488
10.9411
0.0847172
10.9203
0.0866313
10.8991
0.0885925
10.8774
0.0906017
10.8551
0.0926605
10.8324
0.09477
10.8092
0.0969315
10.7855
0.0991464
10.7612
0.101416
10.7364
0.103742
10.711
0.106126
10.6851
0.108568
10.6585
0.111071
10.6314
0.113637
10.6037
0.116266
10.5753
0.118961
10.5463
0.121722
10.5167
0.124553
10.4863
0.127454
10.4553
0.130427
10.4236
0.133474
10.3912
0.136598
10.3581
0.139799
10.3242
0.14308
10.2895
0.146443
10.254
0.149889
10.2178
0.153422
10.1807
0.157042
10.1428
0.160753
10.104
0.164556
10.0644
0.168454
10.0238
0.172449
9.98235
0.176543
9.93994
0.180739
9.89656
0.185039
9.8522
0.189446
9.80682
0.193962
9.76042
0.19859
9.71296
0.203333
9.66442
0.208193
9.61477
0.213174
9.56399
0.218277
9.51206
0.223507
9.45894
0.228867
9.4046
0.234359
9.34903
0.239986
9.29219
0.245753
9.23405
0.251663
9.17458
0.25772
9.11374
0.263927
9.05152
0.270288
8.98787
0.276808
8.92276
0.283491
8.85616
0.290342
8.78803
0.297365
8.71834
0.304561
0.311954
11.2349
0.0104195
-11.2367
11.233
0.0106301
11.2312
0.0108449
11.2293
0.0110647
11.2273
0.0112889
11.2254
0.0115176
11.2233
0.0117512
11.2213
0.0119896
11.2191
0.012233
11.217
0.0124815
11.2148
0.0127353
11.2125
0.0129944
11.2102
0.0132589
11.2079
0.013529
11.2055
0.0138048
11.203
0.0140864
11.2006
0.0143739
11.198
0.0146675
11.1954
0.0149673
11.1927
0.0152734
11.19
0.0155859
11.1872
0.0159051
11.1844
0.0162311
11.1815
0.0165639
11.1786
0.0169037
11.1755
0.0172508
11.1725
0.0176052
11.1693
0.0179672
11.1661
0.0183368
11.1628
0.0187143
11.1594
0.0190998
11.156
0.0194935
11.1525
0.0198956
11.1489
0.0203063
11.1453
0.0207257
11.1415
0.0211541
11.1377
0.0215916
11.1338
0.0220385
11.1299
0.022495
11.1258
0.0229612
11.1216
0.0234374
11.1174
0.0239239
11.113
0.0244208
11.1086
0.0249284
11.1041
0.0254469
11.0995
0.0259766
11.0947
0.0265177
11.0899
0.0270706
11.085
0.0276354
11.0799
0.0282124
11.0748
0.0288019
11.0695
0.0294042
11.0642
0.0300196
11.0587
0.0306485
11.053
0.031291
11.0473
0.0319475
11.0414
0.0326184
11.0355
0.033304
11.0293
0.0340047
11.0231
0.0347206
11.0167
0.0354524
11.0101
0.0362003
11.0035
0.0369647
10.9966
0.0377459
10.9897
0.0385445
10.9825
0.0393608
10.9753
0.0401952
10.9678
0.0410482
10.9602
0.0419203
10.9524
0.0428118
10.9445
0.0437233
10.9363
0.0446552
10.928
0.0456081
10.9196
0.0465824
10.9109
0.0475787
10.902
0.0485976
10.8929
0.0496395
10.8837
0.0507051
10.8742
0.051795
10.8645
0.0529097
10.8546
0.0540498
10.8445
0.0552161
10.8342
0.0564092
10.8236
0.0576297
10.8128
0.0588783
10.8017
0.0601557
10.7904
0.0614628
10.7789
0.0628001
10.7671
0.0641686
10.755
0.0655689
10.7426
0.0670019
10.73
0.0684685
10.7171
0.0699694
10.7039
0.0715056
10.6904
0.073078
10.6766
0.0746875
10.6625
0.0763351
10.6481
0.0780216
10.6334
0.0797482
10.6183
0.0815158
10.6029
0.0833255
10.5871
0.0851785
10.571
0.0870757
10.5545
0.0890184
10.5377
0.0910077
10.5204
0.0930448
10.5028
0.0951309
10.4848
0.0972673
10.4664
0.0994553
10.4475
0.101696
10.4282
0.103991
10.4085
0.106342
10.3884
0.10875
10.3678
0.111216
10.3467
0.113743
10.3251
0.116331
10.3031
0.118982
10.2805
0.121698
10.2574
0.12448
10.2339
0.12733
10.2097
0.13025
10.1851
0.133242
10.1598
0.136307
10.134
0.139447
10.1076
0.142664
10.0806
0.145961
10.053
0.149338
10.0248
0.152798
9.99586
0.156344
9.96631
0.159976
9.93609
0.163698
9.90518
0.167512
9.87356
0.17142
9.84121
0.175423
9.80813
0.179526
9.77429
0.183729
9.73967
0.188036
9.70427
0.192449
9.66805
0.196971
9.631
0.201604
9.5931
0.206351
9.55434
0.211215
9.51468
0.216198
9.47412
0.221304
9.43262
0.226535
9.39017
0.231895
9.34675
0.237387
9.30232
0.243013
9.25688
0.248777
9.21039
0.254682
9.16283
0.260732
9.11418
0.26693
9.06441
0.27328
9.01349
0.279785
8.9614
0.28645
8.90811
0.293278
8.85359
0.300273
8.79781
0.30744
8.74075
0.314783
8.68237
0.322307
8.62264
0.330016
8.56153
0.337916
8.49901
0.346011
8.43504
0.354307
8.3696
0.36281
8.30264
0.371522
0.380467
10.6952
0.0120605
-10.6969
10.6936
0.0123059
10.6918
0.0125564
10.6901
0.0128126
10.6883
0.0130739
10.6865
0.0133407
10.6846
0.0136131
10.6827
0.0138913
10.6808
0.0141754
10.6788
0.0144654
10.6768
0.0147617
10.6747
0.0150641
10.6726
0.0153731
10.6704
0.0156885
10.6682
0.0160107
10.666
0.0163397
10.6637
0.0166757
10.6613
0.0170188
10.6589
0.0173692
10.6565
0.0177272
10.654
0.0180927
10.6514
0.018466
10.6488
0.0188473
10.6461
0.0192367
10.6434
0.0196344
10.6406
0.0200407
10.6377
0.0204556
10.6348
0.0208794
10.6318
0.0213123
10.6288
0.0217544
10.6257
0.0222061
10.6225
0.0226674
10.6193
0.0231386
10.616
0.02362
10.6126
0.0241117
10.6091
0.0246141
10.6056
0.0251272
10.602
0.0256514
10.5983
0.0261869
10.5945
0.026734
10.5907
0.027293
10.5867
0.027864
10.5827
0.0284473
10.5786
0.0290434
10.5744
0.0296524
10.5701
0.0302746
10.5657
0.0309103
10.5612
0.0315599
10.5566
0.0322237
10.5519
0.0329019
10.5471
0.033595
10.5422
0.0343032
10.5372
0.0350269
10.5321
0.0357665
10.5269
0.0365224
10.5215
0.0372948
10.516
0.0380843
10.5105
0.0388912
10.5047
0.0397159
10.4989
0.0405588
10.4929
0.0414203
10.4868
0.042301
10.4806
0.0432012
10.4742
0.0441215
10.4677
0.0450622
10.461
0.046024
10.4542
0.0470072
10.4473
0.0480124
10.4402
0.0490402
10.4329
0.0500911
10.4254
0.0511655
10.4178
0.0522643
10.41
0.0533878
10.4021
0.0545367
10.394
0.0557116
10.3856
0.0569133
10.3771
0.0581422
10.3684
0.0593992
10.3596
0.0606848
10.3505
0.0619999
10.3412
0.0633451
10.3317
0.0647211
10.3219
0.0661288
10.312
0.0675689
10.3018
0.0690424
10.2914
0.0705498
10.2808
0.0720922
10.2699
0.0736704
10.2588
0.0752854
10.2475
0.076938
10.2358
0.0786291
10.2239
0.0803598
10.2118
0.0821311
10.1993
0.083944
10.1866
0.0857995
10.1736
0.0876987
10.1603
0.0896427
10.1467
0.0916327
10.1328
0.0936699
10.1185
0.0957553
10.104
0.0978903
10.0891
0.100076
10.0738
0.102314
10.0582
0.104605
10.0423
0.106951
10.026
0.109354
10.0093
0.111813
9.99224
0.114332
9.97478
0.116911
9.95693
0.119553
9.93866
0.122258
9.91997
0.125028
9.90086
0.127865
9.8813
0.130771
9.8613
0.133747
9.84084
0.136795
9.8199
0.139917
9.79848
0.143115
9.77658
0.14639
9.75416
0.149745
9.73123
0.153181
9.70777
0.156701
9.68377
0.160307
9.65922
0.164
9.6341
0.167784
9.6084
0.17166
9.58211
0.17563
9.55521
0.179697
9.52769
0.183864
9.49953
0.188132
9.47072
0.192505
9.44125
0.196984
9.4111
0.201573
9.38025
0.206274
9.34869
0.21109
9.31639
0.216023
9.28335
0.221078
9.24954
0.226255
9.21496
0.23156
9.17957
0.236994
9.14336
0.24256
9.10631
0.248263
9.0684
0.254105
9.02962
0.26009
8.98993
0.26622
8.94933
0.272501
8.90778
0.278934
8.86527
0.285524
8.82177
0.292275
8.77726
0.29919
8.73172
0.306273
8.68512
0.313529
8.63744
0.320961
8.58865
0.328574
8.53873
0.336373
8.48764
0.344361
8.43537
0.352543
8.38189
0.360926
8.32716
0.369513
8.27116
0.37831
8.21385
0.387322
8.15521
0.396556
8.0952
0.406017
8.0338
0.415712
7.97096
0.425647
7.90666
0.435825
0.446271
10.1815
0.0135643
-10.183
10.18
0.0138421
10.1784
0.0141258
10.1768
0.0144159
10.1752
0.014712
10.1735
0.0150143
10.1718
0.0153229
10.17
0.0156382
10.1682
0.0159602
10.1664
0.0162891
10.1646
0.016625
10.1627
0.016968
10.1607
0.0173184
10.1587
0.0176762
10.1567
0.0180418
10.1546
0.0184151
10.1525
0.0187965
10.1503
0.019186
10.1481
0.0195838
10.1458
0.0199902
10.1435
0.0204053
10.1412
0.0208294
10.1388
0.0212625
10.1363
0.021705
10.1338
0.022157
10.1312
0.0226187
10.1286
0.0230904
10.1259
0.0235722
10.1231
0.0240644
10.1203
0.0245673
10.1174
0.025081
10.1145
0.0256059
10.1115
0.026142
10.1084
0.0266899
10.1053
0.0272496
10.1021
0.0278214
10.0988
0.0284056
10.0954
0.0290026
10.092
0.0296125
10.0885
0.0302357
10.0849
0.0308724
10.0813
0.0315231
10.0775
0.0321879
10.0737
0.0328673
10.0698
0.0335615
10.0658
0.0342709
10.0617
0.0349958
10.0575
0.0357367
10.0533
0.0364938
10.0489
0.0372676
10.0444
0.0380583
10.0399
0.0388665
10.0352
0.0396925
10.0304
0.0405368
10.0256
0.0413997
10.0206
0.0422817
10.0155
0.0431832
10.0103
0.0441048
10.0049
0.0450468
9.99948
0.0460098
9.9939
0.0469942
9.9882
0.0480005
9.98238
0.0490294
9.97642
0.0500813
9.97032
0.0511567
9.96409
0.0522563
9.95772
0.0533806
9.9512
0.0545302
9.94453
0.0557056
9.93772
0.0569077
9.93075
0.0581369
9.92362
0.0593939
9.91632
0.0606795
9.90887
0.0619943
9.90124
0.063339
9.89344
0.0647143
9.88546
0.0661211
9.8773
0.06756
9.86895
0.0690319
9.86041
0.0705376
9.85168
0.0720779
9.84275
0.0736537
9.83361
0.0752659
9.82426
0.0769153
9.8147
0.0786029
9.80492
0.0803297
9.79492
0.0820965
9.78469
0.0839045
9.77422
0.0857547
9.76351
0.087648
9.75255
0.0895856
9.74134
0.0915686
9.72987
0.0935981
9.71814
0.0956753
9.70614
0.0978015
9.69386
0.0999777
9.6813
0.102205
9.66845
0.104486
9.6553
0.10682
9.64184
0.10921
9.62808
0.111656
9.61399
0.114161
9.59958
0.116725
9.58484
0.11935
9.56975
0.122038
9.55431
0.12479
9.53852
0.127609
9.52235
0.130494
9.50582
0.133449
9.4889
0.136475
9.47158
0.139573
9.45386
0.142746
9.43573
0.145995
9.41718
0.149323
9.3982
0.152731
9.37877
0.156221
9.35889
0.159796
9.33855
0.163456
9.31773
0.167206
9.29643
0.171046
9.27464
0.174979
9.25233
0.179007
9.2295
0.183133
9.20614
0.187359
9.18224
0.191688
9.15778
0.196121
9.13275
0.200663
9.10713
0.205314
9.08091
0.210079
9.05409
0.214959
9.02663
0.219958
8.99854
0.225079
8.96979
0.230324
8.94036
0.235697
8.91025
0.241201
8.87944
0.246838
8.8479
0.252613
8.81563
0.258528
8.7826
0.264587
8.74881
0.270793
8.71422
0.27715
8.67882
0.283662
8.64259
0.290333
8.60551
0.297165
8.56757
0.304164
8.52874
0.311332
8.489
0.318675
8.44833
0.326195
8.4067
0.333898
8.36411
0.341788
8.32051
0.349869
8.27589
0.358146
8.23023
0.366623
8.1835
0.375306
8.13567
0.384199
8.08673
0.393308
8.03663
0.402637
7.98536
0.412193
7.93289
0.421982
7.87919
0.432009
7.82424
0.44228
7.76799
0.452803
7.71042
0.463585
7.6515
0.474631
7.5912
0.48595
7.52948
0.497546
0.509444
9.69234
0.0149442
-9.69372
9.69093
0.0152523
9.68949
0.015567
9.68801
0.0158887
9.68651
0.0162171
9.68497
0.0165525
9.6834
0.0168951
9.68179
0.017245
9.68015
0.0176024
9.67847
0.0179675
9.67676
0.0183404
9.675
0.0187213
9.67321
0.0191105
9.67138
0.019508
9.66951
0.0199141
9.66759
0.0203289
9.66564
0.0207527
9.66364
0.0211855
9.66159
0.0216278
9.6595
0.0220796
9.65737
0.0225411
9.65518
0.0230127
9.65295
0.0234944
9.65067
0.0239866
9.64834
0.0244894
9.64595
0.0250032
9.64352
0.0255281
9.64102
0.0260643
9.63848
0.0266123
9.63587
0.0271721
9.63321
0.0277441
9.63049
0.0283286
9.6277
0.0289258
9.62486
0.029536
9.62195
0.0301596
9.61897
0.0307967
9.61593
0.0314478
9.61282
0.0321131
9.60964
0.032793
9.60638
0.0334878
9.60306
0.0341978
9.59966
0.0349234
9.59618
0.0356649
9.59263
0.0364228
9.58899
0.0371973
9.58527
0.0379888
9.58147
0.0387979
9.57758
0.0396247
9.57361
0.0404699
9.56954
0.0413337
9.56538
0.0422167
9.56113
0.0431192
9.55678
0.0440418
9.55233
0.0449848
9.54778
0.0459489
9.54313
0.0469343
9.53837
0.0479418
9.5335
0.0489718
9.52853
0.0500247
9.52344
0.0511013
9.51823
0.0522019
9.5129
0.0533273
9.50745
0.0544778
9.50188
0.0556544
9.49618
0.0568574
9.49035
0.0580876
9.48438
0.0593455
9.47828
0.0606319
9.47204
0.0619475
9.46565
0.0632929
9.45912
0.0646689
9.45244
0.0660762
9.4456
0.0675156
9.43861
0.0689878
9.43146
0.0704938
9.42414
0.0720342
9.41665
0.0736099
9.40898
0.0752219
9.40115
0.076871
9.39312
0.0785581
9.38492
0.0802841
9.37652
0.08205
9.36793
0.0838569
9.35914
0.0857056
9.35015
0.0875974
9.34094
0.0895331
9.33153
0.0915139
9.32189
0.093541
9.31203
0.0956155
9.30194
0.0977386
9.29161
0.0999114
9.28105
0.102135
9.27023
0.104411
9.25917
0.106741
9.24784
0.109126
9.23625
0.111567
9.22439
0.114066
9.21225
0.116624
9.19983
0.119242
9.18712
0.121923
9.17411
0.124668
9.16079
0.127477
9.14716
0.130354
9.13321
0.133299
9.11893
0.136315
9.10432
0.139403
9.08937
0.142565
9.07406
0.145802
9.05839
0.149117
9.04235
0.152511
9.02594
0.155987
9.00914
0.159546
8.99194
0.163191
8.97434
0.166924
8.95633
0.170747
8.93789
0.174662
8.91901
0.178671
8.89969
0.182776
8.87992
0.186981
8.85967
0.191288
8.83895
0.195698
8.81775
0.200215
8.79604
0.204841
8.77382
0.20958
8.75107
0.214433
8.72779
0.219403
8.70396
0.224494
8.67957
0.229708
8.6546
0.235048
8.62904
0.240518
8.60288
0.24612
8.5761
0.251858
8.54869
0.257735
8.52063
0.263755
8.49191
0.269921
8.46251
0.276236
8.43242
0.282705
8.40162
0.28933
8.37009
0.296116
8.33781
0.303067
8.30478
0.310186
8.27096
0.317478
8.23635
0.324947
8.20092
0.332597
8.16465
0.340432
8.12752
0.348457
8.08952
0.356676
8.05062
0.365094
8.0108
0.373716
7.97004
0.382546
7.92832
0.39159
7.88562
0.400852
7.8419
0.410338
7.79716
0.420053
7.75135
0.430002
7.70447
0.440192
7.65648
0.450628
7.60736
0.461317
7.55707
0.472265
7.5056
0.483479
7.45292
0.494966
7.39899
0.506733
7.34378
0.518788
7.28728
0.531139
7.22943
0.543795
7.17022
0.55676
0.57006
9.22659
0.01621
-9.22786
9.2253
0.0165463
9.22398
0.0168898
9.22263
0.0172411
9.22124
0.0175997
9.21983
0.017966
9.21838
0.0183402
9.21691
0.0187224
9.2154
0.0191129
9.21385
0.0195118
9.21227
0.0199194
9.21066
0.0203358
9.20901
0.0207612
9.20732
0.0211958
9.20559
0.0216397
9.20383
0.0220934
9.20203
0.0225569
9.20018
0.0230304
9.19829
0.0235142
9.19637
0.0240085
9.19439
0.0245136
9.19238
0.0250297
9.19031
0.025557
9.1882
0.0260958
9.18605
0.0266463
9.18384
0.0272088
9.18159
0.0277837
9.17928
0.028371
9.17692
0.0289712
9.17451
0.0295846
9.17204
0.0302114
9.16952
0.0308518
9.16694
0.0315064
9.1643
0.0321753
9.1616
0.0328589
9.15884
0.0335574
9.15601
0.0342714
9.15313
0.0350011
9.15017
0.0357468
9.14715
0.036509
9.14406
0.0372879
9.1409
0.0380841
9.13767
0.0388979
9.13436
0.0397296
9.13098
0.0405798
9.12752
0.0414489
9.12398
0.0423371
9.12036
0.0432452
9.11665
0.0441733
9.11287
0.0451222
9.10899
0.0460922
9.10503
0.0470838
9.10097
0.0480975
9.09682
0.0491339
9.09258
0.0501935
9.08823
0.0512767
9.08379
0.0523843
9.07925
0.0535168
9.0746
0.0546746
9.06984
0.0558586
9.06497
0.0570692
9.05999
0.0583072
9.0549
0.0595731
9.04968
0.0608676
9.04435
0.0621915
9.03889
0.0635454
9.03331
0.06493
9.02759
0.0663461
9.02175
0.0677945
9.01576
0.069276
9.00964
0.0707912
9.00338
0.0723412
8.99696
0.0739266
8.9904
0.0755485
8.98369
0.0772075
8.97682
0.0789048
8.96979
0.0806413
8.96259
0.0824177
8.95523
0.0842352
8.94769
0.0860949
8.93998
0.0879977
8.93208
0.0899446
8.924
0.0919368
8.91573
0.0939754
8.90727
0.0960616
8.89861
0.0981965
8.88974
0.100381
8.88066
0.102617
8.87137
0.104906
8.86186
0.107248
8.85213
0.109645
8.84216
0.112099
8.83196
0.114611
8.82152
0.117182
8.81084
0.119814
8.7999
0.122508
8.78869
0.125266
8.77723
0.128089
8.76549
0.13098
8.75348
0.133939
8.74117
0.136969
8.72858
0.140071
8.71569
0.143247
8.70249
0.146499
8.68898
0.149828
8.67514
0.153237
8.66098
0.156728
8.64648
0.160303
8.63163
0.163963
8.61643
0.167711
8.60087
0.171549
8.58494
0.175479
8.56863
0.179503
8.55193
0.183625
8.53483
0.187846
8.51732
0.192168
8.4994
0.196594
8.48105
0.201127
8.46226
0.20577
8.44302
0.210524
8.42332
0.215394
8.40316
0.22038
8.38251
0.225487
8.36137
0.230718
8.33973
0.236075
8.31757
0.241561
8.29489
0.24718
8.27166
0.252935
8.24788
0.258829
8.22353
0.264866
8.1986
0.271048
8.17308
0.277381
8.14695
0.283866
8.1202
0.290509
8.0928
0.297312
8.06476
0.30428
8.03605
0.311416
8.00665
0.318726
7.97656
0.326212
7.94575
0.33388
7.9142
0.341733
7.8819
0.349776