/*--------------------------------*- C++ -*----------------------------------*\
  =========                 |
  \\      /  F ield         | OpenFOAM: The Open Source CFD Toolbox
   \\    /   O peration     | Website:  https://openfoam.org
    \\  /    A nd           | Version:  13
     \\/     M anipulation  |
\*---------------------------------------------------------------------------*/
FoamFile
{
    format      ascii;
    class       volVectorField;
    location    "0.15";
    object      U;
}
// * * * * * * * * * * * * * * * * * * * * * * * * * * * * * * * * * * * * * //

dimensions      [0 1 -1 0 0 0 0];

internalField   nonuniform List<vector> 
68864
(
(30.0152 -0.127653 -1.40042e-21)
(30.0152 -0.128166 -4.21408e-23)
(30.0153 -0.128691 1.12613e-20)
(30.0153 -0.129201 -1.25625e-20)
(30.0154 -0.12973 1.21498e-21)
(30.0154 -0.130269 -1.84872e-21)
(30.0155 -0.130815 5.64093e-21)
(30.0155 -0.131368 -1.84674e-21)
(30.0156 -0.131928 2.07525e-21)
(30.0157 -0.132494 -7.53419e-21)
(30.0157 -0.133068 4.29712e-21)
(30.0158 -0.133648 5.32286e-22)
(30.0158 -0.134235 -8.71751e-21)
(30.0159 -0.134829 3.55911e-21)
(30.0159 -0.13543 4.98746e-21)
(30.016 -0.136038 -3.26909e-21)
(30.0161 -0.136653 5.05492e-21)
(30.0161 -0.137275 3.58749e-21)
(30.0162 -0.137905 -1.7978e-21)
(30.0162 -0.138541 -5.90458e-21)
(30.0163 -0.139185 8.67018e-21)
(30.0164 -0.139836 4.41844e-21)
(30.0164 -0.140495 -6.07849e-21)
(30.0165 -0.14116 -6.85128e-21)
(30.0165 -0.141833 4.06035e-21)
(30.0166 -0.142514 -8.00949e-21)
(30.0167 -0.143201 3.66143e-21)
(30.0167 -0.143897 8.00325e-21)
(30.0168 -0.144599 -1.75405e-20)
(30.0169 -0.145309 -1.23681e-20)
(30.0169 -0.146027 3.78493e-21)
(30.017 -0.146752 1.02805e-20)
(30.0171 -0.147484 -7.43637e-21)
(30.0171 -0.148224 1.98082e-20)
(30.0172 -0.148971 1.18304e-20)
(30.0173 -0.149725 -2.12993e-20)
(30.0173 -0.150487 2.17851e-20)
(30.0174 -0.151257 -1.0507e-20)
(30.0175 -0.152033 -1.30354e-20)
(30.0175 -0.152817 2.68606e-20)
(30.0176 -0.153608 -2.62171e-20)
(30.0177 -0.154407 2.52717e-20)
(30.0178 -0.155212 -9.15582e-21)
(30.0178 -0.156025 3.58748e-22)
(30.0179 -0.156844 -2.7225e-20)
(30.018 -0.157671 3.14748e-20)
(30.0181 -0.158504 -9.64229e-21)
(30.0181 -0.159344 -9.38293e-21)
(30.0182 -0.160191 -8.58312e-22)
(30.0183 -0.161044 1.29612e-20)
(30.0184 -0.161904 -1.03458e-20)
(30.0185 -0.162771 -3.79845e-21)
(30.0185 -0.163643 2.03182e-20)
(30.0186 -0.164522 -8.79076e-21)
(30.0187 -0.165406 3.89858e-21)
(30.0188 -0.166297 -9.04126e-21)
(30.0189 -0.167193 1.3167e-20)
(30.019 -0.168094 -1.16362e-20)
(30.019 -0.169001 7.93198e-21)
(30.0191 -0.169913 -1.92097e-20)
(30.0192 -0.17083 3.00401e-21)
(30.0193 -0.171752 1.44911e-20)
(30.0194 -0.172678 -3.74952e-21)
(30.0195 -0.173608 1.09493e-20)
(30.0196 -0.174543 -1.16632e-20)
(30.0197 -0.175481 4.23992e-21)
(30.0198 -0.176422 -5.09441e-21)
(30.0199 -0.177367 3.41028e-21)
(30.02 -0.178315 2.88145e-22)
(30.0201 -0.179266 4.26467e-21)
(30.0202 -0.180219 4.09722e-21)
(30.0203 -0.181174 -4.22988e-21)
(30.0203 -0.182131 -1.63453e-20)
(30.0204 -0.18309 1.83265e-20)
(30.0205 -0.184049 -7.91903e-21)
(30.0206 -0.18501 -6.45175e-21)
(30.0207 -0.18597 2.09654e-20)
(30.0208 -0.186931 -2.39642e-20)
(30.021 -0.187891 9.37008e-21)
(30.0211 -0.188851 -1.31752e-20)
(30.0212 -0.189809 2.38917e-20)
(30.0213 -0.190766 -1.59376e-20)
(30.0214 -0.191721 4.30441e-21)
(30.0215 -0.192674 1.14605e-20)
(30.0216 -0.193623 -1.42061e-20)
(30.0217 -0.19457 -2.14838e-21)
(30.0218 -0.195513 1.1498e-20)
(30.0219 -0.196452 -4.02254e-21)
(30.022 -0.197386 -7.92211e-21)
(30.0221 -0.198315 1.43156e-20)
(30.0222 -0.199239 4.09144e-21)
(30.0223 -0.200157 4.38341e-21)
(30.0224 -0.201068 -1.83588e-20)
(30.0225 -0.201973 7.3121e-21)
(30.0226 -0.20287 -1.94128e-20)
(30.0227 -0.20376 2.245e-20)
(30.0228 -0.204641 -3.05387e-20)
(30.0229 -0.205514 2.38243e-20)
(30.023 -0.206378 1.27845e-21)
(30.0231 -0.207232 -2.37813e-20)
(30.0232 -0.208076 3.39591e-20)
(30.0233 -0.20891 -1.13508e-20)
(30.0234 -0.209733 -1.60206e-20)
(30.0235 -0.210545 2.01729e-21)
(30.0236 -0.211345 6.41745e-21)
(30.0237 -0.212133 -4.14907e-21)
(30.0238 -0.212908 1.22215e-20)
(30.0239 -0.213671 3.60233e-21)
(30.024 -0.21442 -1.55247e-20)
(30.0241 -0.215157 2.25953e-21)
(30.0241 -0.215879 2.17247e-21)
(30.0242 -0.216587 1.00963e-21)
(30.0243 -0.217281 3.21928e-21)
(30.0244 -0.21796 -9.21403e-21)
(30.0245 -0.218624 1.17847e-20)
(30.0246 -0.219273 -5.13062e-21)
(30.0246 -0.219906 5.24616e-22)
(30.0247 -0.220524 7.56105e-21)
(30.0248 -0.221126 -3.1812e-21)
(30.0248 -0.221713 -4.64459e-21)
(30.0249 -0.222283 -3.22312e-21)
(30.025 -0.222837 5.72412e-21)
(30.025 -0.223375 -4.26984e-21)
(30.0251 -0.223897 8.72722e-21)
(30.0252 -0.224402 -6.11844e-22)
(30.0252 -0.224891 7.59742e-22)
(30.0253 -0.225364 -5.10048e-21)
(30.0253 -0.225821 -1.05149e-21)
(30.0254 -0.226261 -1.83212e-21)
(30.0254 -0.226685 2.86725e-21)
(30.0255 -0.227094 -1.93902e-21)
(30.0255 -0.227486 3.86847e-21)
(30.0256 -0.227863 -2.32765e-21)
(30.0256 -0.228225 -4.97526e-24)
(30.0256 -0.228571 1.59197e-21)
(30.0257 -0.228902 -2.61004e-21)
(30.0257 -0.229218 8.37199e-22)
(30.0257 -0.22952 1.83085e-22)
(30.0258 -0.229807 2.02283e-22)
(30.0258 -0.23008 1.17985e-21)
(30.0258 -0.23034 -2.5422e-21)
(30.0258 -0.230587 2.61206e-21)
(30.0259 -0.23082 -1.8832e-21)
(30.0259 -0.231041 -7.67345e-22)
(30.0259 -0.231249 5.16705e-22)
(30.0259 -0.231445 1.56738e-21)
(30.0259 -0.23163 -3.19268e-22)
(30.0259 -0.231803 -1.13702e-21)
(30.026 -0.231965 5.46685e-22)
(30.026 -0.232116 6.5401e-22)
(30.026 -0.232257 -8.39597e-22)
(30.026 -0.232388 4.96559e-22)
(30.026 -0.232508 -1.29742e-22)
(30.026 -0.232618 -2.4052e-22)
(30.026 -0.232718 9.72318e-25)
(30.026 -0.232809 1.10311e-22)
(30.026 -0.232889 1.27441e-22)
(30.026 -0.232959 -1.20428e-22)
(30.026 -0.233019 2.6185e-23)
(30.026 -0.233069 2.19761e-24)
(30.026 -0.233107 1.39536e-23)
(30.026 -0.233135 5.04498e-23)
(30.026 -0.23315 -4.63133e-23)
(30.026 -0.233154 2.26144e-23)
(30.026 -0.233143 -2.37007e-23)
(30.026 -0.233129 2.54857e-24)
(30.026 -0.23306 9.10092e-25)
(30.016 -0.128184 -3.08411e-21)
(30.0161 -0.12865 2.70958e-21)
(30.0162 -0.129128 -3.30973e-20)
(30.0162 -0.129592 5.14813e-21)
(30.0163 -0.130075 5.99453e-21)
(30.0163 -0.130568 2.43738e-20)
(30.0164 -0.131069 -2.99744e-20)
(30.0165 -0.131577 2.94692e-20)
(30.0165 -0.132091 -4.0487e-20)
(30.0166 -0.132613 4.54853e-21)
(30.0167 -0.133142 1.74282e-20)
(30.0168 -0.133679 -1.69198e-20)
(30.0168 -0.134222 -1.4039e-21)
(30.0169 -0.134773 1.61257e-20)
(30.017 -0.135332 6.72748e-22)
(30.017 -0.135897 -6.11282e-21)
(30.0171 -0.13647 1.78187e-20)
(30.0172 -0.137051 -1.2865e-20)
(30.0173 -0.137639 3.92569e-21)
(30.0174 -0.138235 3.55234e-21)
(30.0174 -0.138839 -4.08906e-21)
(30.0175 -0.13945 -3.21908e-21)
(30.0176 -0.140069 2.8148e-20)
(30.0177 -0.140696 -3.79603e-20)
(30.0178 -0.141331 -5.88917e-21)
(30.0178 -0.141973 3.01621e-20)
(30.0179 -0.142624 -1.67188e-20)
(30.018 -0.143282 1.09202e-20)
(30.0181 -0.143948 -1.95938e-20)
(30.0182 -0.144622 1.15532e-20)
(30.0183 -0.145304 -1.43391e-20)
(30.0184 -0.145995 2.93263e-20)
(30.0185 -0.146693 -2.36567e-20)
(30.0186 -0.147399 -1.79329e-20)
(30.0187 -0.148113 6.86165e-20)
(30.0188 -0.148835 2.94987e-21)
(30.0189 -0.149565 -3.22234e-20)
(30.019 -0.150303 1.87098e-21)
(30.0191 -0.151048 1.24705e-20)
(30.0192 -0.151802 -7.09079e-21)
(30.0193 -0.152564 -2.0313e-20)
(30.0194 -0.153333 1.29598e-20)
(30.0195 -0.154111 1.52617e-20)
(30.0196 -0.154896 -2.14103e-20)
(30.0197 -0.155688 -1.56548e-20)
(30.0198 -0.156489 3.34855e-20)
(30.0199 -0.157297 -5.753e-20)
(30.0201 -0.158112 6.91372e-20)
(30.0202 -0.158935 -3.85255e-20)
(30.0203 -0.159765 -2.04471e-20)
(30.0204 -0.160602 6.70388e-21)
(30.0205 -0.161447 4.73528e-20)
(30.0207 -0.162299 -4.16501e-22)
(30.0208 -0.163157 3.79671e-21)
(30.0209 -0.164022 -4.27188e-20)
(30.0211 -0.164894 -1.6103e-20)
(30.0212 -0.165772 2.77973e-20)
(30.0213 -0.166657 -1.34437e-20)
(30.0215 -0.167548 4.98677e-21)
(30.0216 -0.168445 -2.08618e-21)
(30.0218 -0.169347 1.23249e-21)
(30.0219 -0.170255 1.26274e-20)
(30.022 -0.171169 3.5461e-20)
(30.0222 -0.172088 -4.98667e-20)
(30.0223 -0.173011 2.43905e-20)
(30.0225 -0.17394 -3.7773e-20)
(30.0226 -0.174872 -1.24375e-20)
(30.0228 -0.17581 4.01852e-20)
(30.023 -0.176751 1.50489e-20)
(30.0231 -0.177695 -1.01152e-20)
(30.0233 -0.178643 -2.35064e-20)
(30.0234 -0.179594 3.53374e-20)
(30.0236 -0.180548 -1.61157e-20)
(30.0238 -0.181505 1.29483e-20)
(30.0239 -0.182463 -2.32168e-20)
(30.0241 -0.183423 2.05117e-20)
(30.0243 -0.184385 1.22597e-20)
(30.0245 -0.185347 9.56363e-22)
(30.0246 -0.186311 -3.95376e-20)
(30.0248 -0.187274 2.80985e-20)
(30.025 -0.188238 -4.42852e-20)
(30.0252 -0.1892 2.98226e-20)
(30.0253 -0.190162 -1.32673e-20)
(30.0255 -0.191123 1.64961e-20)
(30.0257 -0.192082 -1.3655e-20)
(30.0259 -0.193038 2.65187e-20)
(30.0261 -0.193992 -1.99163e-20)
(30.0263 -0.194943 5.6044e-21)
(30.0264 -0.19589 -1.66095e-21)
(30.0266 -0.196833 -1.62998e-20)
(30.0268 -0.197772 3.20214e-20)
(30.027 -0.198706 -1.4225e-20)
(30.0272 -0.199634 -9.13618e-21)
(30.0274 -0.200556 -6.82669e-21)
(30.0276 -0.201472 -2.8528e-21)
(30.0277 -0.202381 7.48829e-21)
(30.0279 -0.203283 1.59865e-20)
(30.0281 -0.204177 8.04345e-21)
(30.0283 -0.205062 -2.69645e-20)
(30.0285 -0.205939 -7.87818e-21)
(30.0287 -0.206806 8.11793e-21)
(30.0289 -0.207664 1.55132e-20)
(30.029 -0.208512 3.71842e-21)
(30.0292 -0.209348 -3.90689e-21)
(30.0294 -0.210174 -9.89866e-21)
(30.0296 -0.210989 -4.21356e-21)
(30.0297 -0.211791 6.40086e-21)
(30.0299 -0.212581 1.59128e-20)
(30.0301 -0.213359 -1.5288e-20)
(30.0303 -0.214123 4.34826e-21)
(30.0304 -0.214874 -1.09955e-20)
(30.0306 -0.215611 1.71459e-20)
(30.0308 -0.216333 -7.95334e-21)
(30.0309 -0.217042 -2.93328e-21)
(30.0311 -0.217735 1.33862e-20)
(30.0312 -0.218414 -1.56035e-20)
(30.0314 -0.219077 -4.79788e-22)
(30.0315 -0.219724 4.89052e-21)
(30.0317 -0.220356 8.05999e-21)
(30.0318 -0.220972 -7.05774e-21)
(30.0319 -0.221572 -6.16106e-21)
(30.0321 -0.222155 9.83434e-21)
(30.0322 -0.222722 -5.33967e-21)
(30.0323 -0.223272 1.15744e-21)
(30.0324 -0.223806 7.66702e-22)
(30.0325 -0.224323 -6.88015e-21)
(30.0327 -0.224823 7.83545e-22)
(30.0328 -0.225307 -1.5343e-22)
(30.0329 -0.225774 9.76345e-21)
(30.033 -0.226225 -3.9117e-21)
(30.0331 -0.226659 1.74592e-21)
(30.0332 -0.227076 -2.38375e-21)
(30.0332 -0.227477 1.93981e-21)
(30.0333 -0.227863 -2.82594e-21)
(30.0334 -0.228232 5.94702e-21)
(30.0335 -0.228585 -6.6609e-21)
(30.0335 -0.228923 4.31001e-21)
(30.0336 -0.229246 -3.78053e-21)
(30.0337 -0.229553 6.1694e-23)
(30.0337 -0.229846 4.51266e-21)
(30.0338 -0.230125 -8.67276e-22)
(30.0338 -0.230389 -1.65799e-21)
(30.0339 -0.23064 1.7023e-21)
(30.0339 -0.230877 5.88475e-22)
(30.034 -0.231101 -3.09184e-21)
(30.034 -0.231312 -2.88525e-22)
(30.034 -0.231512 3.54457e-21)
(30.034 -0.231699 -3.22497e-21)
(30.0341 -0.231874 2.02882e-21)
(30.0341 -0.232038 8.33676e-22)
(30.0341 -0.232191 -2.58704e-21)
(30.0341 -0.232333 6.95071e-22)
(30.0341 -0.232464 -6.31843e-22)
(30.0341 -0.232585 5.13151e-22)
(30.0341 -0.232696 3.18709e-22)
(30.0342 -0.232796 -4.11267e-22)
(30.0342 -0.232885 8.82557e-22)
(30.0342 -0.232964 -8.13705e-22)
(30.0342 -0.233032 3.36201e-22)
(30.0342 -0.233089 -7.97777e-23)
(30.0342 -0.233135 2.14012e-22)
(30.0342 -0.233168 -4.284e-23)
(30.0342 -0.233189 -8.19328e-23)
(30.0341 -0.233197 6.49049e-23)
(30.0341 -0.233189 -6.16486e-23)
(30.0341 -0.233176 8.70711e-24)
(30.0341 -0.233107 -5.33244e-24)
(30.0065 -0.128265 -2.31623e-20)
(30.0065 -0.128738 -9.03176e-21)
(30.0066 -0.129221 -9.94483e-21)
(30.0067 -0.129691 2.29401e-20)
(30.0068 -0.130179 -2.86243e-20)
(30.0069 -0.130678 5.2753e-20)
(30.007 -0.131184 -7.37451e-21)
(30.0071 -0.131698 2.01867e-21)
(30.0072 -0.132218 3.2254e-22)
(30.0073 -0.132746 5.25908e-21)
(30.0074 -0.13328 -3.82056e-20)
(30.0075 -0.133822 1.40125e-20)
(30.0076 -0.134371 1.72336e-20)
(30.0077 -0.134927 1.69559e-20)
(30.0078 -0.135491 -2.17173e-20)
(30.0079 -0.136062 1.25667e-20)
(30.008 -0.136641 -2.08322e-21)
(30.0081 -0.137227 1.41699e-21)
(30.0082 -0.13782 -1.85925e-20)
(30.0083 -0.138421 -3.12981e-21)
(30.0085 -0.13903 -1.0575e-20)
(30.0086 -0.139647 -1.13263e-20)
(30.0087 -0.140271 1.83267e-20)
(30.0088 -0.140903 5.20398e-21)
(30.0089 -0.141543 -2.65573e-20)
(30.0091 -0.142191 4.61287e-20)
(30.0092 -0.142846 -3.7204e-20)
(30.0093 -0.14351 6.70001e-21)
(30.0095 -0.144181 3.26371e-20)
(30.0096 -0.14486 1.67187e-21)
(30.0097 -0.145548 -4.38953e-20)
(30.0099 -0.146243 3.22423e-20)
(30.01 -0.146946 -3.68785e-20)
(30.0102 -0.147657 -7.51364e-21)
(30.0103 -0.148376 3.24109e-20)
(30.0105 -0.149103 -6.91276e-21)
(30.0106 -0.149838 -1.08915e-20)
(30.0108 -0.150581 2.04977e-20)
(30.0109 -0.151332 5.7655e-21)
(30.0111 -0.152091 1.66743e-20)
(30.0112 -0.152857 -8.39862e-20)
(30.0114 -0.153632 1.70483e-20)
(30.0116 -0.154414 8.87713e-20)
(30.0117 -0.155204 -1.0095e-19)
(30.0119 -0.156002 8.57261e-22)
(30.0121 -0.156807 5.59476e-20)
(30.0123 -0.15762 4.61608e-20)
(30.0125 -0.15844 -2.8116e-20)
(30.0126 -0.159268 1.347e-20)
(30.0128 -0.160103 -2.32034e-20)
(30.013 -0.160945 5.34553e-21)
(30.0132 -0.161794 -2.46389e-20)
(30.0134 -0.162651 4.97183e-20)
(30.0136 -0.163514 7.99541e-21)
(30.0138 -0.164383 -4.54882e-20)
(30.014 -0.16526 -4.22142e-20)
(30.0142 -0.166143 9.79609e-21)
(30.0144 -0.167032 7.34375e-20)
(30.0146 -0.167927 -3.34832e-20)
(30.0149 -0.168828 -3.3764e-20)
(30.0151 -0.169735 -1.91181e-20)
(30.0153 -0.170647 3.68886e-20)
(30.0155 -0.171565 5.99025e-20)
(30.0158 -0.172487 -8.42267e-20)
(30.016 -0.173415 3.60826e-20)
(30.0162 -0.174347 1.40471e-20)
(30.0165 -0.175284 2.61599e-20)
(30.0167 -0.176224 -3.82537e-20)
(30.017 -0.177169 1.10578e-20)
(30.0172 -0.178117 -1.33655e-20)
(30.0175 -0.179068 4.68602e-20)
(30.0177 -0.180022 -1.61976e-21)
(30.018 -0.180979 -4.48467e-20)
(30.0182 -0.181938 9.57117e-21)
(30.0185 -0.182899 -1.58599e-21)
(30.0188 -0.183862 1.00683e-20)
(30.019 -0.184826 -2.47645e-20)
(30.0193 -0.18579 -1.56969e-20)
(30.0196 -0.186755 -2.64253e-21)
(30.0199 -0.187721 1.57007e-20)
(30.0201 -0.188686 -2.14112e-20)
(30.0204 -0.18965 5.94638e-20)
(30.0207 -0.190613 -2.81823e-21)
(30.021 -0.191574 -3.95736e-20)
(30.0213 -0.192534 4.87232e-21)
(30.0216 -0.193491 2.49225e-20)
(30.0219 -0.194445 -1.27582e-20)
(30.0222 -0.195396 -4.62031e-20)
(30.0224 -0.196343 5.72084e-20)
(30.0227 -0.197285 -1.87466e-20)
(30.023 -0.198223 -1.61953e-20)
(30.0233 -0.199156 -1.4026e-20)
(30.0236 -0.200083 8.52506e-21)
(30.0239 -0.201004 5.48272e-20)
(30.0242 -0.201918 -2.37109e-20)
(30.0245 -0.202825 -1.05193e-20)
(30.0248 -0.203725 3.51053e-20)
(30.0251 -0.204616 -3.63115e-20)
(30.0254 -0.205499 3.00459e-20)
(30.0257 -0.206373 -2.97156e-20)
(30.026 -0.207237 -5.69288e-21)
(30.0263 -0.208091 -5.52975e-22)
(30.0266 -0.208935 4.02507e-21)
(30.0268 -0.209769 1.21925e-20)
(30.0271 -0.21059 5.30107e-21)
(30.0274 -0.2114 -3.76495e-20)
(30.0277 -0.212198 1.86105e-20)
(30.028 -0.212984 2.83871e-20)
(30.0282 -0.213756 -5.51376e-21)
(30.0285 -0.214515 -3.63321e-20)
(30.0288 -0.215261 3.91151e-20)
(30.029 -0.215992 -1.98049e-20)
(30.0293 -0.21671 1.92229e-20)
(30.0296 -0.217412 -2.46194e-21)
(30.0298 -0.2181 -2.81373e-20)
(30.0301 -0.218772 4.35874e-21)
(30.0303 -0.219429 4.28889e-21)
(30.0305 -0.22007 5.77923e-21)
(30.0308 -0.220695 -1.51899e-21)
(30.031 -0.221304 -7.85727e-21)
(30.0312 -0.221897 -3.56108e-21)
(30.0314 -0.222473 -7.59122e-21)
(30.0316 -0.223033 2.14878e-20)
(30.0318 -0.223576 4.04463e-21)
(30.032 -0.224103 -1.55701e-20)
(30.0322 -0.224613 1.13324e-21)
(30.0324 -0.225106 3.30031e-22)
(30.0326 -0.225582 -7.05378e-21)
(30.0328 -0.226042 4.94048e-21)
(30.0329 -0.226485 6.01958e-21)
(30.0331 -0.226911 6.87182e-21)
(30.0333 -0.227321 -6.22088e-21)
(30.0334 -0.227715 1.88329e-21)
(30.0336 -0.228092 -6.44221e-21)
(30.0337 -0.228454 4.87808e-21)
(30.0338 -0.2288 -1.02235e-21)
(30.0339 -0.22913 1.22152e-21)
(30.0341 -0.229445 -6.76519e-22)
(30.0342 -0.229745 1.54888e-21)
(30.0343 -0.230031 -2.38335e-21)
(30.0344 -0.230302 -3.8597e-23)
(30.0345 -0.230559 1.4361e-21)
(30.0346 -0.230803 1.5488e-21)
(30.0346 -0.231033 7.96011e-22)
(30.0347 -0.23125 -6.12991e-21)
(30.0348 -0.231455 1.44224e-21)
(30.0349 -0.231647 4.29538e-21)
(30.0349 -0.231828 -3.1268e-21)
(30.035 -0.231997 -4.70913e-22)
(30.035 -0.232155 1.37379e-21)
(30.0351 -0.232303 -3.38331e-21)
(30.0351 -0.232439 2.70216e-21)
(30.0352 -0.232565 -6.95384e-22)
(30.0352 -0.232682 1.0717e-21)
(30.0352 -0.232788 -6.24888e-22)
(30.0353 -0.232883 2.79856e-23)
(30.0353 -0.232969 4.42819e-22)
(30.0353 -0.233045 -4.88008e-22)
(30.0354 -0.233109 4.88007e-22)
(30.0354 -0.233163 -7.34574e-22)
(30.0354 -0.233206 9.25507e-23)
(30.0355 -0.233236 2.43739e-22)
(30.0355 -0.233254 -4.79052e-23)
(30.0355 -0.233259 8.90815e-24)
(30.0356 -0.233248 5.8292e-23)
(30.0356 -0.233231 -2.26314e-23)
(30.0356 -0.233156 7.71784e-24)
(30.0022 -0.129786 7.41534e-21)
(30.0023 -0.130228 -1.13788e-20)
(30.0024 -0.130681 2.74551e-20)
(30.0025 -0.131121 -2.90087e-20)
(30.0026 -0.13158 6.1221e-20)
(30.0027 -0.132048 -8.69215e-20)
(30.0028 -0.132524 4.74754e-20)
(30.0029 -0.133008 3.53895e-20)
(30.0031 -0.133498 1.64182e-20)
(30.0032 -0.133995 -4.42698e-20)
(30.0033 -0.1345 3.70563e-20)
(30.0034 -0.135012 -3.42276e-20)
(30.0035 -0.135531 2.04415e-20)
(30.0036 -0.136057 -1.83189e-20)
(30.0038 -0.136591 3.74327e-21)
(30.0039 -0.137133 -2.687e-20)
(30.004 -0.137682 -1.34032e-20)
(30.0042 -0.138239 6.07476e-20)
(30.0043 -0.138803 -1.76716e-20)
(30.0044 -0.139375 -5.29879e-20)
(30.0046 -0.139955 -1.79812e-20)
(30.0047 -0.140543 2.22303e-20)
(30.0048 -0.141138 -2.47272e-20)
(30.005 -0.141742 4.84878e-20)
(30.0051 -0.142354 -5.3141e-21)
(30.0053 -0.142973 1.22626e-20)
(30.0054 -0.143601 -3.21864e-20)
(30.0056 -0.144237 2.45943e-20)
(30.0058 -0.144881 2.36512e-20)
(30.0059 -0.145533 2.0706e-20)
(30.0061 -0.146193 -3.4809e-20)
(30.0062 -0.146861 -3.19265e-21)
(30.0064 -0.147538 -5.00607e-20)
(30.0066 -0.148223 8.32254e-20)
(30.0068 -0.148916 -6.8675e-20)
(30.0069 -0.149618 5.00845e-21)
(30.0071 -0.150328 2.06248e-20)
(30.0073 -0.151046 -2.808e-20)
(30.0075 -0.151772 7.27052e-20)
(30.0077 -0.152506 -7.92182e-20)
(30.0079 -0.153249 8.80471e-20)
(30.0081 -0.154 -7.50271e-20)
(30.0083 -0.154759 3.31202e-20)
(30.0085 -0.155526 2.65843e-20)
(30.0087 -0.156301 -4.21574e-20)
(30.0089 -0.157084 1.8901e-20)
(30.0091 -0.157875 -2.58427e-20)
(30.0094 -0.158674 2.0489e-20)
(30.0096 -0.159481 1.73239e-20)
(30.0098 -0.160295 -1.07251e-20)
(30.0101 -0.161117 -6.60992e-21)
(30.0103 -0.161947 6.93901e-20)
(30.0105 -0.162783 -1.02742e-19)
(30.0108 -0.163627 6.62672e-20)
(30.011 -0.164479 2.12777e-20)
(30.0113 -0.165337 -9.33945e-20)
(30.0115 -0.166202 2.94296e-20)
(30.0118 -0.167074 -2.59613e-20)
(30.0121 -0.167952 9.02326e-20)
(30.0123 -0.168837 -7.36245e-20)
(30.0126 -0.169728 1.84713e-20)
(30.0129 -0.170624 -1.70624e-20)
(30.0132 -0.171527 8.94294e-20)
(30.0135 -0.172435 -4.03066e-20)
(30.0138 -0.173348 4.22395e-20)
(30.014 -0.174267 -9.96761e-20)
(30.0143 -0.17519 -4.29741e-20)
(30.0146 -0.176118 3.05224e-20)
(30.015 -0.17705 3.40115e-20)
(30.0153 -0.177986 3.21903e-20)
(30.0156 -0.178926 2.38006e-20)
(30.0159 -0.179869 -1.11406e-19)
(30.0162 -0.180815 6.37546e-20)
(30.0166 -0.181764 -3.58486e-20)
(30.0169 -0.182715 3.63156e-20)
(30.0172 -0.183669 3.84628e-20)
(30.0176 -0.184624 -9.52639e-20)
(30.0179 -0.18558 1.17492e-19)
(30.0183 -0.186537 -3.59221e-20)
(30.0186 -0.187495 -3.7326e-20)
(30.019 -0.188453 4.868e-20)
(30.0193 -0.18941 -5.71235e-20)
(30.0197 -0.190367 -2.42505e-20)
(30.02 -0.191322 2.36266e-20)
(30.0204 -0.192277 4.96179e-20)
(30.0208 -0.193229 -2.69833e-20)
(30.0211 -0.194178 1.46141e-20)
(30.0215 -0.195125 -2.1169e-20)
(30.0219 -0.196068 1.39892e-21)
(30.0222 -0.197007 -4.51172e-20)
(30.0226 -0.197942 5.75411e-20)
(30.023 -0.198872 -1.8635e-20)
(30.0234 -0.199797 5.53908e-20)
(30.0237 -0.200716 -4.01504e-20)
(30.0241 -0.201628 -2.51695e-20)
(30.0245 -0.202534 9.29003e-22)
(30.0249 -0.203433 -7.59951e-21)
(30.0252 -0.204324 -1.28173e-20)
(30.0256 -0.205207 5.91688e-21)
(30.026 -0.206081 -1.04737e-20)
(30.0264 -0.206946 2.10848e-20)
(30.0267 -0.207801 3.60316e-20)
(30.0271 -0.208646 -1.9834e-20)
(30.0275 -0.209481 4.04228e-20)
(30.0278 -0.210305 -2.54526e-20)
(30.0282 -0.211117 1.27229e-20)
(30.0285 -0.211918 -2.47416e-20)
(30.0289 -0.212706 -2.18061e-21)
(30.0292 -0.213481 2.07135e-20)
(30.0296 -0.214244 -4.24362e-20)
(30.0299 -0.214993 3.43974e-20)
(30.0303 -0.215729 1.23065e-20)
(30.0306 -0.21645 -4.27391e-20)
(30.0309 -0.217157 3.30496e-20)
(30.0312 -0.21785 -1.40277e-20)
(30.0316 -0.218527 -1.06854e-20)
(30.0319 -0.219189 -8.22014e-21)
(30.0322 -0.219836 3.33978e-21)
(30.0325 -0.220467 -7.86954e-21)
(30.0328 -0.221082 1.6222e-20)
(30.033 -0.22168 -5.34106e-21)
(30.0333 -0.222263 1.669e-20)
(30.0336 -0.222829 -2.22912e-20)
(30.0338 -0.223379 1.32678e-20)
(30.0341 -0.223912 1.27193e-20)
(30.0343 -0.224429 -1.92935e-20)
(30.0345 -0.224929 8.62481e-21)
(30.0348 -0.225412 -1.00187e-21)
(30.035 -0.225878 3.58843e-22)
(30.0352 -0.226328 -1.05733e-20)
(30.0354 -0.226761 2.67095e-20)
(30.0356 -0.227178 -2.24915e-20)
(30.0358 -0.227579 1.09341e-20)
(30.0359 -0.227963 1.49545e-21)
(30.0361 -0.228332 -3.72758e-22)
(30.0362 -0.228684 -8.60802e-22)
(30.0364 -0.229021 -8.02051e-21)
(30.0365 -0.229343 7.00845e-21)
(30.0367 -0.22965 2.29642e-21)
(30.0368 -0.229942 -6.9378e-21)
(30.0369 -0.230219 -2.38405e-22)
(30.037 -0.230482 1.9169e-21)
(30.0371 -0.230732 3.49072e-21)
(30.0372 -0.230968 1.0848e-22)
(30.0373 -0.231191 -1.94199e-21)
(30.0373 -0.231402 1.30994e-22)
(30.0374 -0.2316 -2.91953e-22)
(30.0374 -0.231787 -2.66357e-21)
(30.0375 -0.231962 8.46227e-21)
(30.0375 -0.232126 -3.90814e-21)
(30.0376 -0.232279 -1.18095e-21)
(30.0376 -0.232422 6.00616e-22)
(30.0376 -0.232555 1.83193e-21)
(30.0377 -0.232677 -9.19301e-23)
(30.0377 -0.232789 -1.55272e-21)
(30.0377 -0.232891 -3.29289e-22)
(30.0377 -0.232984 1.44812e-21)
(30.0377 -0.233065 -4.94591e-22)
(30.0377 -0.233136 1.50853e-22)
(30.0377 -0.233197 -2.093e-22)
(30.0377 -0.233245 -9.98179e-23)
(30.0377 -0.233281 2.31475e-22)
(30.0377 -0.233304 -1.64593e-22)
(30.0377 -0.233314 -6.7115e-23)
(30.0377 -0.233306 1.23738e-22)
(30.0377 -0.233294 -2.14101e-23)
(30.0377 -0.233223 -1.4888e-23)
(29.9949 -0.130337 2.57484e-20)
(29.995 -0.130783 -3.55664e-20)
(29.9951 -0.13124 -1.38787e-20)
(29.9952 -0.131683 3.61661e-20)
(29.9953 -0.132145 -1.30564e-20)
(29.9954 -0.132618 1.30437e-20)
(29.9956 -0.133098 -3.43083e-20)
(29.9957 -0.133585 1.76639e-20)
(29.9958 -0.13408 3.06197e-20)
(29.9959 -0.134581 -5.1532e-20)
(29.9961 -0.13509 8.48294e-20)
(29.9962 -0.135606 -8.41426e-20)
(29.9963 -0.13613 4.96572e-20)
(29.9965 -0.136661 -3.73982e-20)
(29.9966 -0.137199 3.94656e-22)
(29.9968 -0.137745 5.78543e-20)
(29.9969 -0.138299 -1.11827e-19)
(29.997 -0.138861 5.98354e-20)
(29.9972 -0.13943 5.85668e-21)
(29.9974 -0.140007 -1.32664e-21)
(29.9975 -0.140592 -3.02501e-20)
(29.9977 -0.141185 -1.55742e-20)
(29.9978 -0.141786 -3.12508e-20)
(29.998 -0.142395 9.10194e-20)
(29.9982 -0.143011 -6.96735e-21)
(29.9984 -0.143636 3.45793e-20)
(29.9985 -0.14427 -5.3935e-20)
(29.9987 -0.144911 1.62044e-20)
(29.9989 -0.145561 -3.42051e-20)
(29.9991 -0.146218 4.01232e-20)
(29.9993 -0.146884 4.03251e-20)
(29.9995 -0.147559 -5.56687e-20)
(29.9997 -0.148241 -2.72126e-20)
(29.9999 -0.148932 4.31717e-20)
(30.0001 -0.149631 -8.60631e-20)
(30.0003 -0.150339 1.18609e-19)
(30.0006 -0.151054 -4.69077e-20)
(30.0008 -0.151779 4.48816e-20)
(30.001 -0.152511 9.39358e-21)
(30.0013 -0.153251 -5.48095e-20)
(30.0015 -0.154 8.34508e-21)
(30.0017 -0.154757 1.19643e-20)
(30.002 -0.155522 -1.30171e-21)
(30.0022 -0.156296 -6.8844e-20)
(30.0025 -0.157077 7.364e-20)
(30.0028 -0.157866 -1.39288e-20)
(30.003 -0.158663 7.27498e-21)
(30.0033 -0.159468 1.53175e-20)
(30.0036 -0.160281 -3.61868e-20)
(30.0039 -0.161101 4.89787e-20)
(30.0041 -0.161929 -3.62729e-20)
(30.0044 -0.162765 -1.13663e-20)
(30.0047 -0.163607 3.37199e-20)
(30.005 -0.164457 1.32768e-20)
(30.0053 -0.165314 -3.22139e-20)
(30.0057 -0.166178 -1.73262e-20)
(30.006 -0.167049 -4.93436e-20)
(30.0063 -0.167926 3.37164e-20)
(30.0066 -0.168809 -5.51671e-20)
(30.007 -0.169699 9.62709e-20)
(30.0073 -0.170595 7.48879e-21)
(30.0077 -0.171497 -1.18052e-19)
(30.008 -0.172404 1.36776e-19)
(30.0084 -0.173316 -1.06348e-19)
(30.0087 -0.174234 1.48841e-20)
(30.0091 -0.175156 6.04027e-20)
(30.0095 -0.176083 -6.07815e-20)
(30.0099 -0.177015 7.33481e-20)
(30.0103 -0.17795 -1.19648e-19)
(30.0107 -0.178889 6.36831e-20)
(30.0111 -0.179832 5.35735e-20)
(30.0115 -0.180777 -5.65424e-20)
(30.0119 -0.181726 1.12999e-19)
(30.0123 -0.182676 -3.05279e-20)
(30.0127 -0.183629 2.08715e-20)
(30.0131 -0.184584 -1.1997e-19)
(30.0136 -0.185539 2.28888e-20)
(30.014 -0.186496 -4.44805e-20)
(30.0144 -0.187453 9.22035e-20)
(30.0149 -0.188411 -1.01866e-19)
(30.0153 -0.189368 9.63774e-20)
(30.0158 -0.190324 -4.49713e-20)
(30.0162 -0.191279 8.23431e-20)
(30.0167 -0.192232 -1.21772e-19)
(30.0171 -0.193184 9.14269e-20)
(30.0176 -0.194133 -4.40908e-21)
(30.0181 -0.195079 -1.0504e-19)
(30.0185 -0.196021 1.5483e-19)
(30.019 -0.19696 -8.26992e-20)
(30.0195 -0.197895 -1.7073e-20)
(30.02 -0.198824 4.80035e-20)
(30.0204 -0.199748 -2.28251e-20)
(30.0209 -0.200667 -1.52941e-20)
(30.0214 -0.201579 5.93383e-20)
(30.0219 -0.202484 -6.64555e-20)
(30.0224 -0.203382 2.03234e-21)
(30.0229 -0.204272 -3.27437e-20)
(30.0233 -0.205154 6.5823e-20)
(30.0238 -0.206028 3.69382e-21)
(30.0243 -0.206892 -1.1674e-20)
(30.0248 -0.207747 -5.7739e-21)
(30.0253 -0.208592 -3.06065e-20)
(30.0257 -0.209426 7.83627e-21)
(30.0262 -0.210249 3.30195e-20)
(30.0267 -0.211061 -5.94384e-20)
(30.0271 -0.211861 4.69945e-20)
(30.0276 -0.212649 1.60863e-20)
(30.0281 -0.213424 -2.6492e-20)
(30.0285 -0.214186 3.55066e-20)
(30.029 -0.214935 -1.06078e-21)
(30.0294 -0.215671 -3.04865e-20)
(30.0298 -0.216392 2.04749e-20)
(30.0303 -0.217099 1.37463e-20)
(30.0307 -0.217791 -1.9721e-20)
(30.0311 -0.218469 4.50625e-21)
(30.0315 -0.219131 -9.19779e-21)
(30.0319 -0.219778 -5.56914e-21)
(30.0323 -0.220409 -2.70635e-20)
(30.0327 -0.221025 5.22055e-20)
(30.0331 -0.221624 2.49393e-21)
(30.0334 -0.222207 -2.40625e-20)
(30.0338 -0.222774 4.34401e-21)
(30.0341 -0.223325 -2.08336e-20)
(30.0345 -0.223859 2.36357e-20)
(30.0348 -0.224376 1.96284e-20)
(30.0351 -0.224877 -1.96997e-20)
(30.0354 -0.225361 1.60881e-20)
(30.0357 -0.225829 -5.68216e-21)
(30.036 -0.22628 -1.97808e-20)
(30.0363 -0.226715 -5.45339e-21)
(30.0366 -0.227133 -1.02359e-21)
(30.0368 -0.227535 3.39682e-21)
(30.0371 -0.227921 1.97905e-20)
(30.0373 -0.228291 -2.22808e-20)
(30.0375 -0.228645 4.58043e-21)
(30.0377 -0.228983 -2.58833e-21)
(30.0379 -0.229306 5.95691e-21)
(30.0381 -0.229614 5.69512e-21)
(30.0383 -0.229908 -6.86655e-21)
(30.0385 -0.230186 5.48779e-21)
(30.0386 -0.230451 -6.53034e-21)
(30.0388 -0.230702 5.37945e-21)
(30.0389 -0.230939 -3.00053e-21)
(30.039 -0.231164 -5.28944e-22)
(30.0391 -0.231376 -8.56672e-22)
(30.0392 -0.231575 5.15249e-22)
(30.0393 -0.231763 5.92233e-22)
(30.0394 -0.23194 -1.80979e-21)
(30.0395 -0.232106 3.47546e-21)
(30.0396 -0.232261 2.22615e-23)
(30.0396 -0.232406 9.93502e-22)
(30.0397 -0.232541 -2.47422e-21)
(30.0397 -0.232667 1.15644e-21)
(30.0398 -0.232783 6.17306e-22)
(30.0398 -0.23289 -2.57807e-21)
(30.0398 -0.232987 2.42092e-21)
(30.0398 -0.233075 -9.90556e-23)
(30.0399 -0.233154 -1.03343e-21)
(30.0399 -0.233222 -4.42749e-22)
(30.0399 -0.23328 -3.17175e-22)
(30.0399 -0.233326 3.47175e-23)
(30.0399 -0.23336 1.51153e-22)
(30.0399 -0.233381 -1.87956e-22)
(30.0399 -0.23339 -1.18315e-22)
(30.0399 -0.23338 -7.44849e-23)
(30.0399 -0.233365 -3.21191e-23)
(30.0399 -0.233292 -1.45868e-23)
(29.9889 -0.132053 -5.42478e-20)
(29.989 -0.132487 -3.16138e-20)
(29.9892 -0.132933 7.19879e-20)
(29.9893 -0.133365 -3.71628e-20)
(29.9894 -0.133817 5.09117e-21)
(29.9895 -0.134278 8.34617e-21)
(29.9897 -0.134746 7.68228e-21)
(29.9898 -0.135222 3.1982e-20)
(29.99 -0.135705 -8.47939e-20)
(29.9901 -0.136195 2.31575e-20)
(29.9902 -0.136692 2.88485e-20)
(29.9904 -0.137196 5.91997e-21)
(29.9906 -0.137708 -5.73657e-21)
(29.9907 -0.138227 5.06287e-20)
(29.9909 -0.138754 -5.43693e-20)
(29.991 -0.139288 1.39638e-20)
(29.9912 -0.139829 2.27838e-20)
(29.9914 -0.140379 -4.43906e-20)
(29.9915 -0.140936 -2.75396e-20)
(29.9917 -0.141501 7.16983e-20)
(29.9919 -0.142074 -8.20906e-20)
(29.9921 -0.142654 7.41936e-20)
(29.9923 -0.143243 -1.68378e-20)
(29.9925 -0.143839 -6.31151e-21)
(29.9927 -0.144444 -6.79865e-20)
(29.9929 -0.145057 3.81117e-21)
(29.9931 -0.145678 9.87883e-20)
(29.9933 -0.146307 -7.95154e-20)
(29.9935 -0.146944 -1.65125e-21)
(29.9937 -0.14759 3.26726e-20)
(29.9939 -0.148244 4.05451e-20)
(29.9942 -0.148906 1.49937e-20)
(29.9944 -0.149576 -3.2873e-20)
(29.9946 -0.150255 -6.4161e-20)
(29.9949 -0.150942 5.532e-20)
(29.9951 -0.151637 2.21485e-20)
(29.9954 -0.152341 -3.22199e-20)
(29.9956 -0.153053 -6.02407e-20)
(29.9959 -0.153774 3.93634e-20)
(29.9961 -0.154502 7.30025e-20)
(29.9964 -0.155239 -2.97873e-20)
(29.9967 -0.155985 4.23026e-20)
(29.997 -0.156738 -1.34002e-19)
(29.9973 -0.1575 3.95539e-20)
(29.9976 -0.15827 3.44253e-20)
(29.9979 -0.159047 -1.5378e-20)
(29.9982 -0.159833 -5.57798e-21)
(29.9985 -0.160627 3.3543e-20)
(29.9988 -0.161428 -1.37212e-20)
(29.9991 -0.162237 -2.9623e-20)
(29.9995 -0.163054 3.69932e-20)
(29.9998 -0.163878 -1.38481e-20)
(30.0002 -0.16471 5.24838e-20)
(30.0005 -0.165549 -4.78766e-20)
(30.0009 -0.166395 -4.82349e-23)
(30.0012 -0.167248 4.43958e-20)
(30.0016 -0.168108 2.38921e-20)
(30.002 -0.168974 -4.72287e-20)
(30.0024 -0.169847 -5.54055e-20)
(30.0027 -0.170726 3.11885e-20)
(30.0031 -0.171611 4.61566e-20)
(30.0035 -0.172502 -4.43217e-20)
(30.004 -0.173399 -4.79563e-20)
(30.0044 -0.174301 5.15596e-20)
(30.0048 -0.175208 -3.96431e-20)
(30.0052 -0.17612 -1.53956e-20)
(30.0057 -0.177036 7.58042e-20)
(30.0061 -0.177957 -4.27419e-20)
(30.0066 -0.178882 -1.37258e-20)
(30.007 -0.17981 -6.75609e-20)
(30.0075 -0.180742 1.13524e-19)
(30.008 -0.181677 3.77413e-20)
(30.0084 -0.182614 3.38218e-20)
(30.0089 -0.183554 1.74515e-20)
(30.0094 -0.184496 -1.6294e-19)
(30.0099 -0.18544 1.8273e-20)
(30.0104 -0.186384 1.4913e-20)