/*--------------------------------*- C++ -*----------------------------------*\
  =========                 |
  \\      /  F ield         | OpenFOAM: The Open Source CFD Toolbox
   \\    /   O peration     | Website:  https://openfoam.org
    \\  /    A nd           | Version:  13
     \\/     M anipulation  |
\*---------------------------------------------------------------------------*/
FoamFile
{
    format      ascii;
    class       volScalarField;
    location    "0.2";
    object      p;
}
// * * * * * * * * * * * * * * * * * * * * * * * * * * * * * * * * * * * * * //

dimensions      [0 2 -2 0 0 0 0];

internalField   nonuniform List<scalar> 
68864
(
0.370072
0.368626
0.367022
0.365232
0.363429
0.361666
0.359904
0.358122
0.356321
0.35451
0.352689
0.350856
0.34901
0.347151
0.345279
0.343393
0.341494
0.33958
0.337653
0.33571
0.333753
0.33178
0.329791
0.327786
0.325764
0.323726
0.32167
0.319596
0.317504
0.315394
0.313265
0.311116
0.308947
0.306758
0.304548
0.302317
0.300065
0.29779
0.295493
0.293173
0.290829
0.288462
0.286071
0.283655
0.281214
0.278748
0.276257
0.273739
0.271195
0.268624
0.266027
0.263402
0.26075
0.25807
0.255362
0.252627
0.249863
0.247071
0.244251
0.241403
0.238527
0.235623
0.23269
0.22973
0.226743
0.223728
0.220687
0.217619
0.214525
0.211405
0.208261
0.205093
0.201901
0.198686
0.19545
0.192193
0.188915
0.185619
0.182306
0.178976
0.175631
0.172272
0.168901
0.165519
0.162128
0.158729
0.155324
0.151915
0.148504
0.145093
0.141684
0.138278
0.134877
0.131485
0.128102
0.124732
0.121376
0.118037
0.114716
0.111417
0.108141
0.104891
0.101668
0.0984763
0.0953165
0.0921914
0.0891031
0.0860538
0.0830454
0.0800801
0.0771598
0.0742865
0.0714618
0.0686876
0.0659655
0.0632971
0.0606838
0.0581269
0.0556278
0.0531875
0.0508071
0.0484873
0.0462292
0.0440331
0.0418998
0.0398295
0.0378225
0.0358791
0.0339991
0.0321825
0.0304291
0.0287384
0.0271101
0.0255435
0.024038
0.0225927
0.0212067
0.0198791
0.0186087
0.0173943
0.0162347
0.0151286
0.0140745
0.0130709
0.0121164
0.0112093
0.010348
0.0095308
0.00875594
0.00802166
0.00732608
0.00666723
0.0060429
0.00545076
0.00488922
0.00435712
0.00385286
0.00337458
0.00292045
0.00248863
0.00207746
0.00168546
0.00131182
0.00095627
0.000621427
0.000312449
5.32832e-05
0.634202
0.632511
0.630532
0.628334
0.626133
0.623969
0.62179
0.619571
0.61732
0.615044
0.612742
0.610412
0.608053
0.605664
0.603245
0.600795
0.598314
0.5958
0.593254
0.590673
0.588059
0.585409
0.582723
0.580001
0.577241
0.574443
0.571605
0.568728
0.56581
0.562849
0.559847
0.556801
0.55371
0.550574
0.547393
0.544164
0.540887
0.537562
0.534186
0.530761
0.527283
0.523754
0.520171
0.516534
0.512843
0.509095
0.505291
0.50143
0.497511
0.493533
0.489496
0.485398
0.48124
0.477021
0.472739
0.468396
0.46399
0.45952
0.454988
0.450391
0.445731
0.441007
0.43622
0.431368
0.426453
0.421474
0.416432
0.411328
0.406161
0.400933
0.395644
0.390296
0.384889
0.379424
0.373903
0.368326
0.362697
0.357015
0.351284
0.345504
0.339678
0.333809
0.327898
0.321949
0.315963
0.309943
0.303894
0.297816
0.291715
0.285593
0.279453
0.273299
0.267136
0.260966
0.254794
0.248624
0.24246
0.236305
0.230165
0.224044
0.217946
0.211876
0.205837
0.199835
0.193874
0.187959
0.182093
0.176282
0.170529
0.16484
0.159218
0.153667
0.148191
0.142795
0.137482
0.132256
0.12712
0.122077
0.117132
0.112285
0.107541
0.102902
0.0983707
0.0939481
0.0896368
0.0854381
0.0813536
0.0773844
0.0735314
0.0697951
0.0661761
0.0626744
0.0592899
0.0560224
0.0528713
0.0498358
0.0469148
0.0441071
0.0414113
0.0388256
0.0363484
0.0339774
0.0317106
0.0295455
0.0274796
0.0255102
0.0236345
0.0218496
0.0201524
0.0185398
0.0170084
0.0155551
0.0141766
0.0128696
0.0116298
0.010453
0.00933515
0.00827278
0.00726205
0.00629909
0.00537997
0.00450132
0.00365906
0.00285483
0.00207917
0.00137308
0.000550267
0.949336
0.947065
0.944418
0.941538
0.938654
0.935786
0.932876
0.929902
0.926875
0.923802
0.920681
0.917509
0.914284
0.911007
0.907675
0.90429
0.900848
0.89735
0.893794
0.89018
0.886506
0.882771
0.878974
0.875115
0.871191
0.867202
0.863147
0.859024
0.854832
0.850571
0.846239
0.841834
0.837356
0.832804
0.828175
0.82347
0.818686
0.813822
0.808878
0.803852
0.798743
0.793549
0.78827
0.782905
0.777451
0.771908
0.766276
0.760552
0.754736
0.748827
0.742824
0.736726
0.730532
0.724242
0.717855
0.711369
0.704786
0.698103
0.691321
0.684439
0.677458
0.670376
0.663195
0.655914
0.648533
0.641053
0.633475
0.625799
0.618026
0.610157
0.602193
0.594135
0.585986
0.577746
0.569417
0.561003
0.552504
0.543923
0.535264
0.526529
0.517721
0.508843
0.499899
0.490893
0.481828
0.47271
0.463542
0.454329
0.445075
0.435787
0.426469
0.417126
0.407764
0.39839
0.389008
0.379625
0.370248
0.360883
0.351536
0.342214
0.332923
0.323671
0.314465
0.30531
0.296215
0.287186
0.27823
0.269353
0.260563
0.251867
0.24327
0.234779
0.226401
0.218142
0.210008
0.202004
0.194136
0.186409
0.178828
0.171398
0.164123
0.157008
0.150056
0.14327
0.136654
0.13021
0.12394
0.117847
0.111932
0.106197
0.100641
0.0952653
0.0900704
0.0850555
0.0802199
0.0755626
0.0710822
0.0667767
0.0626442
0.0586821
0.0548877
0.0512578
0.0477893
0.0444784
0.0413214
0.038314
0.035452
0.0327309
0.0301459
0.0276921
0.0253645
0.0231577
0.0210664
0.019085
0.0172075
0.0154281
0.0137408
0.0121398
0.0106189
0.00917178
0.0077922
0.00647332
0.00520946
0.00398962
0.00281696
0.00163169
0.00059577
1.21335
1.21054
1.20736
1.20397
1.20059
1.1972
1.19375
1.19023
1.18664
1.183
1.1793
1.17554
1.17171
1.16781
1.16385
1.15982
1.15572
1.15155
1.1473
1.14299
1.13859
1.13412
1.12957
1.12494
1.12023
1.11544
1.11056
1.1056
1.10054
1.0954
1.09016
1.08483
1.07941
1.07389
1.06827
1.06255
1.05673
1.0508
1.04477
1.03863
1.03238
1.02602
1.01955
1.01296
1.00626
0.999441
0.992502
0.985442
0.97826
0.970954
0.963523
0.955966
0.94828
0.940466
0.932521
0.924446
0.916238
0.907897
0.899423
0.890814
0.88207
0.873191
0.864177
0.855028
0.845743
0.836323
0.826769
0.817081
0.80726
0.797307
0.787224
0.777011
0.766671
0.756206
0.745617
0.734908
0.724081
0.713139
0.702085
0.690924
0.679658
0.668292
0.656831
0.645278
0.63364
0.621921
0.610128
0.598265
0.58634
0.574358
0.562326
0.550252
0.538142
0.526005
0.513848
0.501678
0.489505
0.477336
0.46518
0.453046
0.440943
0.428879
0.416864
0.404907
0.393017
0.381203
0.369475
0.357841
0.346311
0.334894
0.323599
0.312435
0.301409
0.290531
0.279809
0.26925
0.258862
0.248653
0.23863
0.228798
0.219165
0.209735
0.200515
0.19151
0.182723
0.174159
0.165822
0.157714
0.149838
0.142196
0.134789
0.127618
0.120685
0.113988
0.107527
0.101301
0.0953095
0.0895493
0.0840181
0.0787132
0.0736311
0.0687681
0.0641199
0.0596821
0.0554498
0.0514176
0.0475801
0.0439313
0.0404652
0.0371753
0.034055
0.0310973
0.0282952
0.0256413
0.023128
0.0207475
0.0184917
0.0163525
0.0143214
0.0123897
0.0105487
0.00878895
0.00710118
0.00547456
0.00389995
0.00235881
0.00083241
1.48468
1.4817
1.47831
1.47472
1.47112
1.4675
1.46379
1.45999
1.45612
1.45216
1.44813
1.44401
1.43981
1.43552
1.43114
1.42667
1.4221
1.41745
1.41269
1.40784
1.40289
1.39784
1.39268
1.38742
1.38204
1.37656
1.37097
1.36526
1.35943
1.35349
1.34742
1.34123
1.33492
1.32848
1.3219
1.3152
1.30836
1.30139
1.29427
1.28702
1.27962
1.27208
1.26439
1.25654
1.24855
1.24041
1.2321
1.22364
1.21502
1.20624
1.1973
1.18819
1.17891
1.16947
1.15986
1.15007
1.14012
1.12999
1.11969
1.10921
1.09856
1.08773
1.07672
1.06554
1.05419
1.04266
1.03095
1.01907
1.00702
0.994799
0.982405
0.969844
0.957118
0.944227
0.931177
0.917969
0.904607
0.891095
0.877437
0.863638
0.849702
0.835634
0.82144
0.807127
0.792699
0.778165
0.76353
0.748803
0.733991
0.719102
0.704145
0.689128
0.674061
0.658953
0.643814
0.628653
0.613482
0.59831
0.583149
0.56801
0.552903
0.53784
0.522833
0.507893
0.493031
0.47826
0.463591
0.449035
0.434605
0.420311
0.406165
0.392179
0.378362
0.364726
0.351282
0.338039
0.325006
0.312195
0.299612
0.287268
0.27517
0.263324
0.25174
0.240422
0.229377
0.21861
0.208126
0.197928
0.18802
0.178406
0.169086
0.160062
0.151336
0.142908
0.134776
0.12694
0.119398
0.112148
0.105186
0.0985097
0.0921146
0.0859961
0.080149
0.0745678
0.0692463
0.064178
0.0593561
0.0547732
0.0504217
0.0462935
0.0423803
0.0386733
0.0351637
0.0318422
0.0286991
0.0257246
0.0229086
0.0202406
0.0177098
0.0153052
0.0130154
0.0108284
0.00873179
0.00671289
0.00475681
0.00285465
0.000951105
1.74265
1.73921
1.73533
1.73128
1.72723
1.72313
1.71893
1.71463
1.71024
1.70576
1.70119
1.69653
1.69176
1.6869
1.68193
1.67686
1.67168
1.66639
1.66099
1.65548
1.64985
1.64411
1.63824
1.63225
1.62613
1.61989
1.61351
1.607
1.60035
1.59356
1.58663
1.57956
1.57234
1.56497
1.55745
1.54977
1.54193
1.53393
1.52577
1.51743
1.50893
1.50026
1.49141
1.48239
1.47318
1.46379
1.45422
1.44446
1.4345
1.42436
1.41401
1.40348
1.39274
1.3818
1.37065
1.35931
1.34775
1.33599
1.32402
1.31184
1.29944
1.28684
1.27402
1.26099
1.24775
1.2343
1.22063
1.20676
1.19267
1.17838
1.16388
1.14917
1.13427
1.11916
1.10386
1.08837
1.07269
1.05682
1.04078
1.02456
1.00818
0.991629
0.974926
0.958074
0.941081
0.923955
0.906704
0.889336
0.871862
0.85429
0.836631
0.818895
0.801092
0.783236
0.765336
0.747404
0.729454
0.711498
0.693548
0.675617
0.65772
0.63987
0.622079
0.604363
0.586735
0.569209
0.5518
0.53452
0.517384
0.500406
0.483599
0.466977
0.450553
0.434339
0.41835
0.402595
0.387089
0.371841
0.356862
0.342164
0.327756
0.313646
0.299844
0.286358
0.273194
0.260359
0.247859
0.235699
0.223883
0.212415
0.201298
0.190533
0.180122
0.170065
0.160362
0.151011
0.142011
0.13336
0.125053
0.117087
0.109457
0.102158
0.0951832
0.0885271
0.082182
0.0761403
0.0703939
0.064934
0.0597516
0.0548372
0.0501807
0.0457719
0.0416001
0.0376542
0.0339227
0.0303938
0.0270554
0.0238949
0.0208992
0.0180551
0.0153484
0.0127646
0.0102887
0.00790373
0.00559537
0.0033362
0.00112799
1.99371
1.99014
1.98609
1.98188
1.97766
1.97338
1.96898
1.96447
1.95986
1.95514
1.95031
1.94537
1.94031
1.93514
1.92985
1.92444
1.9189
1.91323
1.90743
1.9015
1.89543
1.88922
1.88287
1.87637
1.86973
1.86293
1.85597
1.84886
1.84158
1.83414
1.82654
1.81876
1.8108
1.80267
1.79435
1.78585
1.77716
1.76828
1.7592
1.74992
1.74044
1.73076
1.72086
1.71076
1.70044
1.6899
1.67914
1.66815
1.65694
1.6455
1.63382
1.62191
1.60976
1.59737
1.58473
1.57185
1.55873
1.54535
1.53173
1.51785
1.50373
1.48934
1.47471
1.45982
1.44468
1.42928
1.41363
1.39773
1.38158
1.36518
1.34853
1.33164
1.3145
1.29713
1.27953
1.26169
1.24363
1.22534
1.20685
1.18814
1.16924
1.15013
1.13085
1.11138
1.09174
1.07195
1.052
1.03191
1.01169
0.991355
0.970913
0.950376
0.929758
0.909072
0.888331
0.86755
0.846743
0.825924
0.80511
0.784315
0.763555
0.742847
0.722205
0.701646
0.681187
0.660844
0.640634
0.620572
0.600675
0.580959
0.56144
0.542134
0.523056
0.504222
0.485646
0.467341
0.449324
0.431605
0.414199
0.397117
0.380371
0.363971
0.347928
0.332251
0.316948
0.302028
0.287496
0.273359
0.259622
0.246289
0.233364
0.220848
0.208744
0.197052
0.185772
0.174902
0.164441
0.154385
0.144731
0.135474
0.126609
0.11813
0.110029
0.1023
0.0949331
0.0879208
0.0812532
0.0749202
0.0689113
0.0632155
0.0578211
0.0527163
0.0478886
0.043325
0.0390124
0.0349368
0.0310842
0.0274399
0.0239885
0.0207144
0.0176011
0.0146312
0.0117873
0.00904776
0.00640092
0.00379639
0.00130841
2.24474
2.24079
2.23633
2.23173
2.22713
2.22245
2.21763
2.21269
2.20763
2.20246
2.19716
2.19174
2.18619
2.18051
2.17469
2.16874
2.16264
2.1564
2.15002
2.14348
2.13679
2.12994
2.12293
2.11576
2.10842
2.1009
2.09321
2.08534
2.07729
2.06905
2.06062
2.05199
2.04317
2.03414
2.02491
2.01547
2.00581
1.99593
1.98583
1.9755
1.96495
1.95416
1.94313
1.93186
1.92034
1.90857
1.89655
1.88428
1.87174
1.85894
1.84587
1.83254
1.81893
1.80504
1.79088
1.77643
1.76171
1.74669
1.73139
1.71581
1.69993
1.68376
1.6673
1.65055
1.6335
1.61617
1.59854
1.58062
1.56242
1.54393
1.52515
1.50609
1.48676
1.46715
1.44727
1.42713
1.40673
1.38607
1.36517
1.34402
1.32265
1.30105
1.27923
1.25721
1.235
1.2126
1.19002
1.16729
1.1444
1.12138
1.09824
1.07498
1.05164
1.02821
1.00472
0.981187
0.957622
0.934042
0.910467
0.886913
0.863398
0.839941
0.81656
0.793273
0.770099
0.747057
0.724165
0.701442
0.678906
0.656577
0.634471
0.612607
0.591002
0.569673
0.548638
0.527912
0.507511
0.48745
0.467743
0.448404
0.429447
0.410883
0.392723
0.374979
0.357659
0.340773
0.324329
0.308332
0.292789
0.277704
0.263082
0.248924
0.235234
0.22201
0.209254
0.196964
0.185137
0.17377
0.162859
0.152399
0.142383
0.132805
0.123657
0.11493
0.106616
0.0987033
0.0911821
0.0840408
0.0772675
0.0708498
0.0647745
0.0590281
0.0535964
0.048465
0.0436186
0.0390417
0.0347181
0.0306312
0.0267637
0.0230974
0.0196137
0.0162923
0.013114
0.0100515
0.0070984
0.00417665
0.00145946
2.48821
2.48406
2.47936
2.47454
2.46972
2.4648
2.45973
2.45452
2.44918
2.44372
2.43811
2.43237
2.42649
2.42045
2.41427
2.40793
2.40144
2.39478
2.38796
2.38097
2.3738
2.36646
2.35894
2.35123
2.34334
2.33524
2.32695
2.31846
2.30976
2.30085
2.29172
2.28238
2.2728
2.263
2.25296
2.24269
2.23217
2.2214
2.21038
2.1991
2.18756
2.17576
2.16368
2.15133
2.13869
2.12578
2.11257
2.09907
2.08528
2.07118
2.05678
2.04208
2.02706
2.01172
1.99607
1.9801
1.96381
1.94719
1.93024
1.91296
1.89535
1.87741
1.85914
1.84053
1.82159
1.80232
1.78272
1.76278
1.74252
1.72193
1.70101
1.67978
1.65823
1.63636
1.61419
1.59172
1.56895
1.54589
1.52256
1.49895
1.47507
1.45095
1.42658
1.40197
1.37714
1.35211
1.32688
1.30146
1.27588
1.25014
1.22427
1.19827
1.17217
1.14598
1.11972
1.09341
1.06706
1.04071
1.01435
0.988026
0.961745
0.93553
0.909402
0.883383
0.857492
0.83175
0.80618
0.780801
0.755635
0.730701
0.706021
0.681613
0.657498
0.633695
0.610222
0.587097
0.564338
0.541961
0.519982
0.498417
0.477279
0.456583
0.43634
0.416563
0.397262
0.378446
0.360125
0.342305
0.324992
0.308193
0.29191
0.276148
0.260907
0.246188
0.231992
0.218316
0.205158
0.192514
0.180379
0.168747
0.157612
0.146966
0.1368
0.127105
0.11787
0.109084
0.100735
0.0928107
0.0852973
0.0781809
0.0714471
0.0650807
0.0590661
0.0533869
0.0480265
0.0429673
0.0381915
0.0336803
0.0294144
0.0253735
0.0215368
0.0178812
0.0143858
0.0110172
0.00777639
0.00454939
0.00162962
2.73518
2.73069
2.72561
2.72042
2.71525
2.70995
2.70448
2.69886
2.69311
2.68721
2.68116
2.67495
2.66859
2.66206
2.65537
2.64851
2.64147
2.63426
2.62686
2.61927
2.6115
2.60352
2.59535
2.58697
2.57838
2.56957
2.56054
2.55129
2.54181
2.53209
2.52213
2.51193
2.50148
2.49077
2.4798
2.46856
2.45706
2.44527
2.43321
2.42085
2.40821
2.39526
2.38202
2.36847
2.3546
2.34042
2.32591
2.31108
2.29592
2.28042
2.26458
2.2484
2.23186
2.21498
2.19774
2.18015
2.16219
2.14387
2.12518
2.10612
2.0867
2.0669
2.04673
2.02619
2.00528
1.98399
1.96234
1.94031
1.91792
1.89517
1.87205
1.84858
1.82475
1.80058
1.77607
1.75122
1.72604
1.70054
1.67473
1.64862
1.62222
1.59554
1.56859
1.54138
1.51392
1.48624
1.45835
1.43025
1.40197
1.37352
1.34493
1.3162
1.28736
1.25843
1.22943
1.20037
1.17128
1.14219
1.1131
1.08405
1.05506
1.02614
0.99733
0.968644
0.940106
0.911739
0.883568
0.855615
0.827902
0.800452
0.773287
0.74643
0.719901
0.693721
0.667911
0.64249
0.617477
0.59289
0.568746
0.545062
0.521853
0.499134
0.476918
0.455217
0.434044
0.413407
0.393317
0.373781
0.354805
0.336396
0.318556
0.30129
0.284599
0.268483
0.252942
0.237973
0.223575
0.209742
0.196469
0.183749
0.171576
0.159939
0.148831
0.138239
0.128153
0.11856
0.109448
0.100801
0.0926055
0.0848461
0.0775068
0.070571
0.0640213
0.0578402
0.052009
0.0465088
0.0413198
0.0364216
0.0317929
0.0274113
0.0232539
0.019295
0.0155122
0.011866
0.00836606
0.00485836
0.00177802
2.97748
2.97272
2.96732
2.96184
2.95638
2.95077
2.94498
2.93902
2.93291
2.92664
2.92021
2.91361
2.90684
2.89988
2.89275
2.88543
2.87791
2.8702
2.86229
2.85417
2.84584
2.8373
2.82853
2.81954
2.81031
2.80084
2.79114
2.78118
2.77097
2.76049
2.74976
2.73875
2.72746
2.71589
2.70403
2.69187
2.67942
2.66665
2.65357
2.64018
2.62646
2.61241
2.59802
2.58329
2.56822
2.55279
2.537
2.52085
2.50433
2.48744
2.47017
2.45252
2.43447
2.41604
2.39722
2.37799
2.35836
2.33833
2.31789
2.29704
2.27579
2.25411
2.23203
2.20954
2.18663
2.16331
2.13957
2.11543
2.09089
2.06594
2.04059
2.01484
1.98871
1.9622
1.9353
1.90804
1.88042
1.85245
1.82414
1.79549
1.76653
1.73726
1.70769
1.67785
1.64775
1.61739
1.5868
1.556
1.525
1.49383
1.4625
1.43103
1.39944
1.36776
1.33601
1.30421
1.27238
1.24055
1.20874
1.17697
1.14528
1.11369
1.08221
1.05088
1.01973
0.988767
0.958031
0.927541
0.897324
0.867403
0.837802
0.808546
0.779656
0.751156
0.723067
0.69541
0.668205
0.641471
0.615228
0.589492
0.56428
0.539607
0.515487
0.491933
0.468958
0.446571
0.424782
0.4036
0.383031
0.36308
0.343751
0.325049
0.306973
0.289525
0.272703
0.256504
0.240926
0.225963
0.211609
0.197857
0.184698
0.172124
0.160122
0.148683
0.137792
0.127436
0.117602
0.108274
0.0994353
0.0910699
0.0831603
0.0756886
0.068636
0.0619834
0.0557106
0.0497972
0.0442218
0.038962
0.033995
0.0292963
0.024841
0.020601
0.0165527
0.0126498
0.00891267
0.00514334
0.00192799
3.224
3.21887
3.21307
3.20721
3.20137
3.19538
3.18916
3.18277
3.17622
3.1695
3.16259
3.1555
3.14822
3.14075
3.13307
3.12519
3.1171
3.1088
3.10027
3.09152
3.08254
3.07331
3.06385
3.05414
3.04417
3.03394
3.02344
3.01267
3.00161
2.99028
2.97865
2.96672
2.95448
2.94194
2.92907
2.91588
2.90236
2.8885
2.8743
2.85975
2.84483
2.82956
2.81391
2.79789
2.78148
2.76469
2.7475
2.72991
2.71192
2.69351
2.67469
2.65545
2.63578
2.61568
2.59514
2.57417
2.55275
2.53089
2.50859
2.48583
2.46262
2.43897
2.41485
2.39029
2.36527
2.33981
2.31389
2.28753
2.26072
2.23347
2.20579
2.17768
2.14915
2.1202
2.09084
2.06108
2.03093
2.0004
1.9695
1.93825
1.90666
1.87473
1.8425
1.80997
1.77715
1.74408
1.71076
1.67721
1.64346
1.60953
1.57544
1.54121
1.50687
1.47243
1.43793
1.40338
1.36882
1.33427
1.29976
1.26531
1.23095
1.19671
1.16262
1.12869
1.09497
1.06148
1.02824
0.995276
0.962625
0.930307
0.898349
0.866775
0.83561
0.804878
0.774601
0.744801
0.715501
0.686719
0.658476
0.63079
0.603676
0.577152
0.551232
0.525929
0.501256
0.477222
0.453839
0.431113
0.409052
0.38766
0.366942
0.3469
0.327535
0.308848
0.290836
0.273496
0.256825
0.240816
0.225463
0.210757
0.19669
0.18325
0.170426
0.158206
0.146575
0.135519
0.125022
0.115069
0.10564
0.0967198
0.0882882
0.0803262
0.0728138
0.0657304
0.0590547
0.0527645
0.046837
0.0412484
0.035974
0.0309876
0.0262625
0.0217681
0.0174799
0.0133451
0.00939544
0.005387
0.00206542
3.46883
3.46336
3.45717
3.45095
3.44475
3.43837
3.43175
3.42495
3.41796
3.4108
3.40343
3.39586
3.38809
3.3801
3.37189
3.36347
3.35481
3.34592
3.33678
3.3274
3.31777
3.30788
3.29772
3.28728
3.27657
3.26558
3.25429
3.2427
3.2308
3.2186
3.20607
3.19321
3.18002
3.16649
3.1526
3.13837
3.12377
3.10879
3.09344
3.07771
3.06158
3.04506
3.02812
3.01078
2.99301
2.97482
2.9562
2.93713
2.91763
2.89767
2.87725
2.85638
2.83503
2.81322
2.79092
2.76815
2.7449
2.72116
2.69693
2.67221
2.647
2.62129
2.5951
2.5684
2.54122
2.51354
2.48538
2.45673
2.4276
2.39799
2.36792
2.33737
2.30638
2.27493
2.24304
2.21073
2.17799
2.14485
2.11132
2.07741
2.04313
2.00851
1.97355
1.93829
1.90273
1.8669
1.83081
1.79449
1.75797
1.72126
1.68439
1.64739
1.61027
1.57307
1.53582
1.49854
1.46126
1.424
1.3868
1.34969
1.31269
1.27584
1.23916
1.20269
1.16644
1.13046
1.09477
1.0594
1.02438
0.989726
0.955478
0.921658
0.888292
0.855405
0.823019
0.791159
0.759847
0.729103
0.698946
0.669397
0.640471
0.612186
0.584556
0.557594
0.531313
0.505723
0.480834
0.456653
0.433187
0.410441
0.388418
0.367121
0.346549
0.326703
0.307579
0.289175
0.271485
0.254502
0.238219
0.222627
0.207716
0.193474
0.179888
0.166944
0.154629
0.142925
0.131816
0.121285
0.111312
0.10188
0.092967
0.0845536
0.0766181
0.0691387
0.0620928
0.055457
0.049207
0.0433176
0.0377624
0.0325137
0.0275431
0.0228175
0.0183121
0.0139671
0.00982688
0.00559959
0.00219591
3.71801
3.71214
3.7055
3.69884
3.69223
3.6854
3.67832
3.67103
3.66355
3.65587
3.64797
3.63986
3.63151
3.62294
3.61413
3.60508
3.59578
3.58622
3.5764
3.56631
3.55594
3.54529
3.53435
3.52311
3.51157
3.49972
3.48755
3.47505
3.46221
3.44904
3.43551
3.42163
3.40738
3.39275
3.37775
3.36236
3.34657
3.33037
3.31377
3.29674
3.27928
3.26139
3.24306
3.22427
3.20503
3.18532
3.16514
3.14448
3.12333
3.10169
3.07956
3.05692
3.03378
3.01012
2.98594
2.96124
2.93602
2.91027
2.88399
2.85717
2.82983
2.80195
2.77353
2.74458
2.7151
2.68509
2.65455
2.62349
2.59192
2.55983
2.52724
2.49415
2.46057
2.42652
2.39199
2.35702
2.32159
2.28574
2.24948
2.21282
2.17577
2.13837
2.10062
2.06255
2.02418
1.98552
1.94662
1.90748
1.86813
1.8286
1.78893
1.74912
1.70921
1.66924
1.62923
1.58921
1.54921
1.50926
1.46939
1.42964
1.39003
1.3506
1.31137
1.27239
1.23368
1.19527
1.15719
1.11947
1.08214
1.04523
1.00877
0.972791
0.93731
0.902356
0.867954
0.834128
0.8009
0.768291
0.736322
0.705011
0.674376
0.644432
0.615195
0.586678
0.558892
0.531849
0.505556
0.480021
0.455251
0.431249
0.408018
0.38556
0.363875
0.34296
0.322814
0.303431
0.284805
0.266929
0.249795
0.233392
0.217709
0.202734
0.188453
0.17485
0.16191
0.149617
0.137951
0.126895
0.116428
0.10653
0.0971806
0.0883574
0.0800381
0.0721998
0.0648185
0.0578698
0.0513282
0.0451671
0.0393587
0.0338737
0.0286822
0.0237491
0.0190489
0.0145154
0.0102062
0.00578005
0.0023178
3.96783
3.96154
3.95444
3.94734
3.94029
3.93301
3.92545
3.91766
3.90966
3.90145
3.89301
3.88432
3.8754
3.86622
3.85678
3.84708
3.83711
3.82686
3.81632
3.8055
3.79437
3.78293
3.77118
3.7591
3.7467
3.73395
3.72086
3.70741
3.69359
3.67941
3.66484
3.64988
3.63453
3.61877
3.60259
3.58599
3.56896
3.55149
3.53356
3.51518
3.49634
3.47702
3.45721
3.43692
3.41612
3.39483
3.37301
3.35068
3.32782
3.30443
3.28049
3.25601
3.23098
3.20539
3.17924
3.15253
3.12525
3.0974
3.06897
3.03997
3.01039
2.98024
2.94951
2.91821
2.88634
2.8539
2.82089
2.78733
2.75322
2.71856
2.68336
2.64763
2.61139
2.57464
2.5374
2.49967
2.46149
2.42285
2.38378
2.3443
2.30442
2.26417
2.22357
2.18264
2.1414
2.09989
2.05812
2.01612
1.97392
1.93155
1.88904
1.84642
1.80372
1.76097
1.7182
1.67545
1.63274
1.59012
1.5476
1.50524
1.46306
1.42109
1.37937
1.33793
1.2968
1.25602
1.21562
1.17563
1.13607
1.09698
1.05839
1.02033
0.982823
0.945893
0.909567
0.873869
0.838821
0.804446
0.770762
0.73779
0.705545
0.674043
0.6433
0.613327
0.584137
0.555738
0.52814
0.501348
0.475369
0.450205
0.425859
0.40233
0.379619
0.357723
0.336637
0.316356
0.296874
0.278181
0.260269
0.243126
0.226739
0.211096
0.196182
0.18198
0.168473
0.155644
0.143473
0.13194
0.121025
0.110707
0.100961
0.0917675
0.083101
0.0749381
0.0672539
0.0600229
0.0532184
0.0468126
0.0407767
0.0350796
0.0296902
0.0245713
0.0196974
0.0149954
0.0105374
0.00593104
0.00243173
4.2221
4.21536
4.20774
4.20015
4.19261
4.18482
4.17672
4.16838
4.15982
4.15102
4.14196
4.13265
4.12307
4.11322
4.10309
4.09268
4.08197
4.07095
4.05963
4.04799
4.03602
4.02372
4.01108
3.99808
3.98473
3.971
3.9569
3.94241
3.92752
3.91223
3.89653
3.8804
3.86384
3.84684
3.82939
3.81147
3.79309
3.77423
3.75488
3.73503
3.71468
3.69381
3.67241
3.65049
3.62802
3.60501
3.58144
3.5573
3.5326
3.50731
3.48144
3.45499
3.42793
3.40028
3.37202
3.34315
3.31367
3.28357
3.25286
3.22153
3.18958
3.15702
3.12384
3.09004
3.05564
3.02063
2.98502
2.94882
2.91203
2.87467
2.83673
2.79824
2.75921
2.71964
2.67956
2.63898
2.59792
2.55639
2.51441
2.47201
2.42921
2.38603
2.34249
2.29863
2.25446
2.21001
2.16532
2.12042
2.07532
2.03008
1.9847
1.93924
1.89372
1.84818
1.80265
1.75717
1.71177
1.66649
1.62135
1.57641
1.53169
1.48722
1.44305
1.39921
1.35573
1.31264
1.26998
1.22779
1.18608
1.14489
1.10426
1.06421
1.02476
0.985948
0.947794
0.910323
0.873557
0.837517
0.802223
0.767692
0.733942
0.700988
0.668843
0.637519
0.607028
0.577377
0.548575
0.520627
0.493537
0.467308
0.441941
0.417435
0.393789
0.370998
0.349058
0.327963
0.307704
0.288272
0.269656
0.251844
0.234823
0.218578
0.203093
0.188352
0.174335
0.161025
0.1484
0.13644
0.125123
0.114426
0.104326
0.0947999
0.0858222
0.0773684
0.0694128
0.0619289
0.0548893
0.048265
0.0420261
0.0361401
0.0305747
0.0252907
0.0202628
0.0154114
0.0108233
0.00605447
0.00253796
4.47868
4.47144
4.46328
4.45517
4.44712
4.43879
4.43013
4.4212
4.41203
4.40261
4.39291
4.38293
4.37266
4.3621
4.35124
4.34007
4.32858
4.31676
4.3046
4.2921
4.27924
4.26603
4.25244
4.23846
4.2241
4.20934
4.19417
4.17858
4.16256
4.14609
4.12918
4.11182
4.09398
4.07566
4.05685
4.03754
4.01773
3.99739
3.97653
3.95512
3.93317
3.91066
3.88759
3.86393
3.83969
3.81486
3.78943
3.76339
3.73673
3.70944
3.68153
3.65298
3.62379
3.59395
3.56346
3.53232
3.50052
3.46806
3.43494
3.40116
3.36672
3.33162
3.29587
3.25946
3.22241
3.18471
3.14638
3.10742
3.06784
3.02765
2.98687
2.94551
2.90358
2.86109
2.81807
2.77453
2.7305
2.68599
2.64102
2.59562
2.54982
2.50364
2.4571
2.41024
2.36309
2.31567
2.26802
2.22016
2.17215
2.12399
2.07575
2.02743
1.9791
1.93077
1.88249
1.83429
1.78622
1.7383
1.69058
1.6431
1.59588
1.54898
1.50241
1.45623
1.41046
1.36514
1.3203
1.27598
1.23221
1.18901
1.14642
1.10447
1.06319
1.02259
0.982711
0.94357
0.905188
0.867588
0.830788
0.794805
0.759655
0.725353
0.691911
0.65934
0.627651
0.59685
0.566944
0.537938
0.509834
0.482635
0.45634
0.430947
0.406453
0.382854
0.360144
0.338314
0.317355
0.297258
0.27801
0.259599
0.242009
0.225225
0.209231
0.194007
0.179536
0.165796
0.152766
0.140426
0.12875
0.117717
0.107301
0.0974779
0.0882229
0.07951
0.0713127
0.063604
0.0563553
0.0495372
0.0431183
0.0370652
0.0313444
0.0259146
0.0207512
0.0157677
0.0110671
0.0061523
0.00263673
4.73989
4.73212
4.72336
4.71469
4.70608
4.69716
4.68787
4.6783
4.66848
4.65838
4.64798
4.63727
4.62626
4.61492
4.60326
4.59126
4.57892
4.56622
4.55316
4.53972
4.5259
4.51169
4.49707
4.48204
4.46659
4.4507
4.43437
4.41758
4.40033
4.3826
4.36439
4.34567
4.32645
4.30671
4.28644
4.26563
4.24427
4.22234
4.19984
4.17676
4.15309
4.12881
4.10392
4.07841
4.05226
4.02548
3.99805
3.96996
3.9412
3.91178
3.88167
3.85089
3.81941
3.78724
3.75437
3.72081
3.68653
3.65156
3.61588
3.5795
3.54241
3.50463
3.46615
3.42697
3.38712
3.34658
3.30538
3.26352
3.22101
3.17786
3.1341
3.08973
3.04477
2.99924
2.95316
2.90655
2.85943
2.81183
2.76377
2.71528
2.66639
2.61712
2.5675
2.51758
2.46737
2.41692
2.36626
2.31542
2.26444
2.21335
2.1622
2.11103
2.05986
2.00875
1.95773
1.90683
1.85611
1.80559
1.75532
1.70533
1.65567
1.60637
1.55748
1.50902
1.46103
1.41355
1.36661
1.32025
1.2745
1.22938
1.18493
1.14118
1.09815
1.05588
1.01437
0.973663
0.933772
0.894717
0.856517
0.819188
0.782745
0.747201
0.712567
0.678854
0.646069
0.61422
0.58331
0.553344
0.524323
0.496248
0.469116
0.442925
0.417671
0.393347
0.369947
0.347461
0.325879
0.30519
0.28538
0.266435
0.248341
0.23108
0.214633
0.198984
0.18411
0.16999
0.156603
0.143926
0.131934
0.120603
0.109909
0.0998241
0.0903241
0.0813822
0.0729714
0.065064
0.0576309
0.0506419
0.0440648
0.037865
0.0320078
0.0264503
0.0211683
0.016069
0.011272
0.00622642
0.00272834
5.00454
4.99621
4.98681
4.97753
4.96833
4.95878
4.94883
4.93858
4.92806
4.91723
4.90609
4.89461
4.88279
4.87063
4.85812
4.84525
4.83199
4.81836
4.80433
4.78989
4.77504
4.75977
4.74406
4.7279
4.71128
4.69419
4.67662
4.65856
4.64
4.62092
4.60131
4.58116
4.56047
4.53921
4.51737
4.49496
4.47195
4.44832
4.42409
4.39922
4.37371
4.34755
4.32073
4.29324
4.26506
4.2362
4.20664
4.17637
4.14539
4.11369
4.08127
4.0481
4.0142
3.97956
3.94418
3.90804
3.87116
3.83352
3.79514
3.75601
3.71614
3.67552
3.63417
3.5921
3.5493
3.50579
3.46158
3.41668
3.37111
3.32488
3.278
3.2305
3.1824
3.13371
3.08446
3.03467
2.98437
2.93358
2.88234
2.83068
2.77861
2.72619
2.67343
2.62039
2.56708
2.51355
2.45984
2.40598
2.35201
2.29798
2.24393
2.18989
2.1359
2.08202
2.02827
1.9747
1.92136
1.86828
1.81551
1.76307
1.71103
1.6594
1.60824
1.55758
1.50745
1.4579
1.40895
1.36064
1.313
1.26606
1.21985
1.1744
1.12973
1.08588
1.04286
1.00069
0.959393
0.918992
0.8795
0.840932
0.803303
0.766622
0.730902
0.69615
0.662372
0.629574
0.597759
0.56693
0.537085
0.508225
0.480346
0.453445
0.427514
0.402547
0.378535
0.355469
0.333336
0.312124
0.29182
0.272407
0.253869
0.236188
0.219346
0.203322
0.188096
0.173645
0.159945
0.146974
0.134705
0.123114
0.112175
0.101862
0.0921471
0.0830045
0.0744065
0.0663249
0.0587305
0.0515921
0.044877
0.0385494
0.0325736
0.026905
0.0215201
0.0163198
0.0114411
0.0062787
0.00281314
5.27404
5.26509
5.25501
5.24508
5.23523
5.225
5.21435
5.20336
5.19208
5.18047
5.16852
5.1562
5.14353
5.13048
5.11705
5.10322
5.08899
5.07435
5.05927
5.04376
5.0278
5.01138
4.99449
4.97712
4.95924
4.94086
4.92196
4.90252
4.88254
4.86201
4.8409
4.81921
4.79693
4.77404
4.75053
4.72638
4.7016
4.67616
4.65005
4.62326
4.59578
4.5676
4.53871
4.50909
4.47875
4.44766
4.41582
4.38323
4.34987
4.31574
4.28083
4.24513
4.20865
4.17137
4.1333
4.09444
4.05478
4.01432
3.97307
3.93103
3.88821
3.8446
3.80022
3.75508
3.70918
3.66254
3.61517
3.56709
3.5183
3.46884
3.41872
3.36795
3.31657
3.2646
3.21205
3.15897
3.10538
3.05131
2.99679
2.94186
2.88655
2.83089
2.77493
2.7187
2.66223
2.60558
2.54878
2.49188
2.43491
2.37792
2.32095
2.26405
2.20725
2.15061
2.09416
2.03796
1.98203
1.92644
1.87121
1.81639
1.76202
1.70813
1.65478
1.60199
1.54981
1.49827
1.44739
1.39723
1.3478
1.29913
1.25127
1.20422
1.15802
1.1127
1.06826
1.02474
0.982153
0.940513
0.899837
0.860138
0.821428
0.783717
0.747013
0.711323
0.676653
0.643005
0.610381
0.578782
0.548206
0.518651
0.490111
0.462582
0.436056
0.410525
0.385977
0.362403
0.339789
0.318122
0.297387
0.277566
0.258643
0.240598
0.223413
0.207066
0.191534
0.176796
0.162826
0.1496
0.137093
0.125277
0.114126
0.103614
0.0937133
0.0843963
0.0756355
0.0674026
0.059668
0.0524003
0.0455659
0.039128
0.0330501
0.0272857
0.0218123
0.0165243
0.0115773
0.00631085
0.00289147
5.54774
5.53815
5.52733
5.5167
5.50617
5.49522
5.48381
5.47204
5.45995
5.44751
5.43469
5.42149
5.4079
5.3939
5.37949
5.36465
5.34938
5.33365
5.31747
5.30081
5.28366
5.26602
5.24787
5.22919
5.20998
5.19021
5.16989
5.14899
5.1275
5.1054
5.08269
5.05936
5.03538
5.01074
4.98544
4.95945
4.93277
4.90539
4.87728
4.84845
4.81887
4.78853
4.75743
4.72556
4.69289
4.65944
4.62518
4.5901
4.55421
4.5175
4.47995
4.44156
4.40234
4.36227
4.32136
4.2796
4.237
4.19356
4.14929
4.10418
4.05824
4.01148
3.96392
3.91555
3.8664
3.81648
3.7658
3.71439
3.66225
3.60942
3.55592
3.50176
3.44698
3.39161
3.33566
3.27919
3.22221
3.16476
3.10688
3.0486
2.98996
2.93101
2.87178
2.81232
2.75267
2.69286
2.63295
2.57298
2.513
2.45305
2.39317
2.33342
2.27384
2.21447
2.15536
2.09656
2.0381
1.98004