/*--------------------------------*- C++ -*----------------------------------*\
  =========                 |
  \\      /  F ield         | OpenFOAM: The Open Source CFD Toolbox
   \\    /   O peration     | Website:  https://openfoam.org
    \\  /    A nd           | Version:  13
     \\/     M anipulation  |
\*---------------------------------------------------------------------------*/
FoamFile
{
    format      ascii;
    class       surfaceScalarField;
    location    "0.2";
    object      phi;
}
// * * * * * * * * * * * * * * * * * * * * * * * * * * * * * * * * * * * * * //

dimensions      [0 3 -1 0 0 0 0];

internalField   nonuniform List<scalar> 
137229
(
14.3657
-0.000407912
-14.3685
14.3628
-0.000416739
14.3599
-0.000425918
14.357
-0.000435189
14.3539
-0.0004448
14.3509
-0.000454734
14.3477
-0.000464921
14.3445
-0.00047545
14.3413
-0.000486265
14.3379
-0.000497402
14.3345
-0.000508835
14.3311
-0.000520663
14.3276
-0.000532773
14.324
-0.000545263
14.3203
-0.000558143
14.3166
-0.000571333
14.3127
-0.000584965
14.3089
-0.00059899
14.3049
-0.000613391
14.3009
-0.000628243
14.2967
-0.000643501
14.2925
-0.000659209
14.2883
-0.000675386
14.2839
-0.000692019
14.2794
-0.000709128
14.2749
-0.000726731
14.2703
-0.00074485
14.2655
-0.000763476
14.2607
-0.000782634
14.2558
-0.000802348
14.2508
-0.000822581
14.2457
-0.000843451
14.2405
-0.000864865
14.2351
-0.000886852
14.2297
-0.000909532
14.2242
-0.000932754
14.2186
-0.000956671
14.2128
-0.000981257
14.2069
-0.00100645
14.201
-0.00103239
14.1948
-0.00105898
14.1886
-0.00108632
14.1823
-0.00111439
14.1758
-0.00114314
14.1692
-0.00117273
14.1624
-0.00120303
14.1556
-0.00123413
14.1485
-0.00126602
14.1414
-0.00129875
14.1341
-0.00133224
14.1266
-0.0013666
14.119
-0.00140179
14.1113
-0.00143786
14.1034
-0.00147477
14.0953
-0.00151256
14.0871
-0.00155124
14.0787
-0.0015908
14.0701
-0.00163129
14.0614
-0.00167265
14.0525
-0.00171492
14.0434
-0.00175815
14.0341
-0.00180223
14.0246
-0.00184732
14.015
-0.00189327
14.0051
-0.00194015
13.995
-0.00198798
13.9848
-0.0020367
13.9743
-0.00208633
13.9636
-0.00213688
13.9527
-0.00218831
13.9416
-0.00224064
13.9302
-0.0022938
13.9186
-0.00234782
13.9068
-0.00240272
13.8947
-0.00245839
13.8824
-0.00251485
13.8699
-0.00257212
13.857
-0.00263006
13.844
-0.00268873
13.8306
-0.00274808
13.817
-0.00280803
13.8031
-0.00286857
13.7889
-0.00292966
13.7744
-0.00299121
13.7596
-0.00305323
13.7445
-0.00311558
13.7291
-0.00317828
13.7134
-0.00324119
13.6974
-0.00330434
13.681
-0.00336751
13.6643
-0.00343074
13.6472
-0.00349392
13.6298
-0.00355689
13.612
-0.00361968
13.5939
-0.00368206
13.5754
-0.003744
13.5565
-0.00380536
13.5372
-0.00386607
13.5175
-0.00392594
13.4974
-0.00398489
13.4769
-0.00404278
13.4559
-0.00409945
13.4346
-0.00415476
13.4127
-0.0042086
13.3905
-0.00426074
13.3677
-0.00431111
13.3445
-0.00435943
13.3208
-0.00440561
13.2966
-0.00444947
13.2719
-0.00449074
13.2467
-0.00452932
13.2209
-0.00456498
13.1946
-0.00459748
13.1678
-0.00462666
13.1403
-0.00465226
13.1124
-0.00467413
13.0838
-0.00469192
13.0546
-0.00470548
13.0248
-0.00471458
12.9944
-0.00471893
12.9633
-0.00471828
12.9316
-0.00471241
12.8992
-0.00470102
12.8661
-0.00468386
12.8323
-0.00466062
12.7978
-0.00463108
12.7626
-0.0045949
12.7266
-0.00455178
12.6899
-0.00450149
12.6523
-0.00444365
12.614
-0.00437804
12.5749
-0.00430424
12.5349
-0.00422196
12.4941
-0.00413096
12.4523
-0.0040308
12.4097
-0.00392119
12.3662
-0.00380176
12.3218
-0.00367222
12.2764
-0.00353214
12.23
-0.00338117
12.1826
-0.00321897
12.1342
-0.00304516
12.0848
-0.00285931
12.0342
-0.00266105
11.9826
-0.00244999
11.9299
-0.00222573
11.8761
-0.0019878
11.821
-0.00173579
11.7648
-0.00146928
11.7074
-0.00118779
11.6487
-0.000890875
11.5887
-0.000578038
11.5275
-0.000248815
11.4649
9.73014e-05
11.4009
0.000460845
11.3355
0.000842384
11.2687
0.0012424
11.2005
0.00166161
11.1307
0.00210043
11.0594
0.00255969
10.9866
0.00303988
10.9122
0.00354177
10.8361
0.00406608
10.7583
0.00461351
10.6789
0.00518502
10.5977
0.00578062
0.00640513
13.6793
0.00215003
-13.6818
13.6767
0.00219149
13.674
0.00223372
13.6713
0.00227687
13.6685
0.00232077
13.6657
0.00236547
13.6628
0.002411
13.6599
0.00245739
13.6569
0.00250466
13.6539
0.00255278
13.6508
0.00260183
13.6476
0.00265181
13.6444
0.00270273
13.6411
0.00275456
13.6377
0.00280737
13.6343
0.0028612
13.6308
0.00291602
13.6272
0.00297186
13.6235
0.00302876
13.6198
0.00308674
13.616
0.00314578
13.6122
0.00320592
13.6082
0.00326721
13.6042
0.00332961
13.6001
0.00339326
13.5959
0.00345801
13.5917
0.00352406
13.5873
0.00359131
13.5829
0.00365983
13.5783
0.00372964
13.5737
0.00380078
13.569
0.00387326
13.5642
0.00394711
13.5593
0.00402238
13.5543
0.00409905
13.5491
0.00417718
13.5439
0.00425684
13.5386
0.00433799
13.5332
0.00442069
13.5276
0.00450502
13.522
0.00459092
13.5162
0.00467851
13.5104
0.0047678
13.5044
0.00485883
13.4982
0.00495163
13.492
0.00504625
13.4856
0.00514273
13.4791
0.00524109
13.4725
0.00534143
13.4657
0.00544377
13.4588
0.00554813
13.4517
0.0056546
13.4445
0.00576323
13.4372
0.00587404
13.4297
0.00598715
13.422
0.00610256
13.4142
0.00622034
13.4062
0.00634061
13.3981
0.00646334
13.3898
0.00658865
13.3813
0.00671666
13.3727
0.00684737
13.3638
0.00698089
13.3548
0.00711729
13.3456
0.00725668
13.3362
0.0073991
13.3267
0.00754466
13.3169
0.00769349
13.3069
0.00784567
13.2967
0.00800125
13.2863
0.00816039
13.2757
0.00832322
13.2648
0.00848979
13.2538
0.00866027
13.2425
0.00883477
13.231
0.00901344
13.2192
0.00919635
13.2072
0.00938371
13.1949
0.00957565
13.1824
0.00977229
13.1696
0.00997385
13.1566
0.0101804
13.1432
0.0103922
13.1296
0.0106095
13.1158
0.0108322
13.1016
0.0110608
13.0871
0.0112953
13.0723
0.011536
13.0572
0.0117831
13.0418
0.0120368
13.0261
0.0122973
13.01
0.012565
12.9937
0.0128399
12.9769
0.0131225
12.9598
0.0134128
12.9424
0.0137114
12.9245
0.0140183
12.9063
0.0143339
12.8877
0.0146586
12.8688
0.0149925
12.8494
0.0153361
12.8296
0.0156896
12.8094
0.0160535
12.7888
0.016428
12.7677
0.0168136
12.7462
0.0172106
12.7242
0.0176194
12.7017
0.0180404
12.6788
0.018474
12.6554
0.0189207
12.6315
0.0193808
12.6071
0.0198548
12.5821
0.0203432
12.5567
0.0208464
12.5306
0.021365
12.5041
0.0218994
12.4769
0.0224501
12.4492
0.0230176
12.4209
0.0236026
12.392
0.0242055
12.3624
0.0248268
12.3322
0.0254673
12.3014
0.0261273
12.2699
0.0268077
12.2377
0.0275089
12.2049
0.0282315
12.1713
0.0289763
12.137
0.0297439
12.102
0.0305349
12.0662
0.03135
12.0296
0.03219
11.9923
0.0330556
11.9541
0.0339474
11.9151
0.0348663
11.8753
0.035813
11.8345
0.0367882
11.7929
0.0377927
11.7504
0.0388275
11.707
0.0398932
11.6626
0.0409908
11.6173
0.0421211
11.571
0.043285
11.5236
0.0444834
11.4753
0.0457172
11.4258
0.0469874
11.3753
0.048295
11.3237
0.0496408
11.2709
0.0510261
11.217
0.0524516
11.1619
0.0539187
11.1056
0.0554282
11.048
0.0569814
10.9892
0.0585794
10.929
0.0602234
10.8676
0.0619146
10.8048
0.0636542
10.7406
0.0654435
10.675
0.0672838
10.6079
0.0691765
10.5393
0.071123
10.4692
0.0731247
10.3976
0.0751832
10.3244
0.0772999
10.2495
0.0794767
10.173
0.0817151
10.0947
0.0840172
0.0863855
13.0211
0.00448561
-13.0234
13.0187
0.00457376
13.0163
0.00466362
13.0138
0.00475539
13.0113
0.00484893
13.0087
0.00494431
13.0061
0.00504158
13.0034
0.00514085
13.0006
0.00524204
12.9978
0.00534527
12.995
0.00545057
12.9921
0.00555798
12.9891
0.00566751
12.9861
0.00577928
12.983
0.00589324
12.9799
0.00600949
12.9767
0.00612811
12.9734
0.00624905
12.97
0.00637243
12.9666
0.00649832
12.9631
0.00662668
12.9596
0.00675769
12.956
0.00689125
12.9523
0.00702755
12.9485
0.00716658
12.9446
0.00730842
12.9407
0.00745307
12.9367
0.0076007
12.9326
0.00775126
12.9284
0.00790488
12.9242
0.00806158
12.9198
0.0082215
12.9154
0.00838463
12.9109
0.00855107
12.9062
0.00872089
12.9015
0.00889413
12.8967
0.00907097
12.8918
0.00925133
12.8868
0.00943543
12.8817
0.00962328
12.8764
0.00981493
12.8711
0.0100106
12.8657
0.0102102
12.8601
0.0104139
12.8544
0.0106219
12.8487
0.010834
12.8427
0.0110507
12.8367
0.0112718
12.8306
0.0114975
12.8243
0.0117278
12.8179
0.011963
12.8113
0.0122031
12.8046
0.0124483
12.7978
0.0126985
12.7908
0.0129541
12.7837
0.0132151
12.7765
0.0134815
12.769
0.0137537
12.7615
0.0140316
12.7538
0.0143155
12.7459
0.0146055
12.7378
0.0149017
12.7296
0.0152043
12.7212
0.0155134
12.7126
0.0158293
12.7039
0.016152
12.6949
0.0164819
12.6858
0.0168189
12.6765
0.0171634
12.667
0.0175155
12.6573
0.0178755
12.6473
0.0182434
12.6372
0.0186197
12.6269
0.0190043
12.6163
0.0193977
12.6055
0.0198
12.5945
0.0202115
12.5832
0.0206324
12.5718
0.021063
12.56
0.0215035
12.548
0.0219542
12.5358
0.0224154
12.5233
0.0228875
12.5106
0.0233706
12.4975
0.0238652
12.4842
0.0243714
12.4706
0.0248898
12.4567
0.0254205
12.4426
0.0259641
12.4281
0.0265208
12.4133
0.0270909
12.3982
0.027675
12.3827
0.0282734
12.367
0.0288865
12.3509
0.0295147
12.3344
0.0301586
12.3176
0.0308185
12.3005
0.0314948
12.2829
0.0321881
12.265
0.032899
12.2467
0.0336278
12.228
0.0343751
12.209
0.0351415
12.1895
0.0359275
12.1695
0.0367337
12.1492
0.0375606
12.1284
0.0384088
12.1072
0.0392791
12.0855
0.040172
12.0633
0.0410881
12.0406
0.0420282
12.0175
0.0429929
11.9939
0.043983
11.9697
0.0449991
11.945
0.046042
11.9198
0.0471124
11.8941
0.0482112
11.8677
0.0493391
11.8408
0.050497
11.8134
0.0516857
11.7853
0.052906
11.7566
0.0541589
11.7273
0.0554452
11.6973
0.0567658
11.6667
0.0581218
11.6354
0.059514
11.6035
0.0609434
11.5708
0.0624111
11.5374
0.0639181
11.5033
0.0654655
11.4684
0.0670542
11.4328
0.0686856
11.3964
0.0703605
11.3592
0.0720803
11.3211
0.073846
11.2823
0.0756591
11.2425
0.0775204
11.2019
0.0794316
11.1604
0.0813937
11.118
0.0834081
11.0747
0.0854761
11.0303
0.0875993
10.9851
0.0897788
10.9388
0.0920163
10.8914
0.0943131
10.8431
0.0966708
10.7936
0.0990909
10.7431
0.101575
10.6914
0.104125
10.6386
0.106742
10.5846
0.109428
10.5294
0.112185
10.4729
0.115014
10.4152
0.117918
10.3562
0.120898
10.2959
0.123956
10.2343
0.127095
10.1713
0.130315
10.1068
0.13362
10.0409
0.137012
9.97356
0.140492
9.90468
0.144063
9.83425
0.147728
9.76224
0.151488
9.6886
0.155347
9.61332
0.159307
0.163375
12.3967
0.00662146
-12.3989
12.3946
0.00675299
12.3923
0.00688712
12.3901
0.00702416
12.3878
0.00716391
12.3854
0.00730649
12.383
0.00745197
12.3805
0.00760043
12.378
0.00775191
12.3755
0.00790652
12.3728
0.00806424
12.3702
0.00822524
12.3674
0.0083895
12.3647
0.00855714
12.3618
0.00872818
12.3589
0.00890278
12.356
0.00908091
12.353
0.00926274
12.3499
0.00944825
12.3468
0.0096376
12.3436
0.00983087
12.3403
0.010028
12.3369
0.0102293
12.3335
0.0104347
12.3301
0.0106444
12.3265
0.0108584
12.3229
0.0110767
12.3192
0.0112996
12.3154
0.0115271
12.3116
0.0117593
12.3076
0.0119963
12.3036
0.0122382
12.2995
0.0124851
12.2953
0.0127372
12.291
0.0129945
12.2867
0.0132571
12.2822
0.0135252
12.2777
0.0137989
12.273
0.0140782
12.2683
0.0143635
12.2635
0.0146547
12.2585
0.0149519
12.2535
0.0152554
12.2483
0.0155653
12.2431
0.0158816
12.2377
0.0162047
12.2322
0.0165345
12.2266
0.0168713
12.2209
0.0172152
12.2151
0.0175664
12.2091
0.0179251
12.203
0.0182913
12.1968
0.0186654
12.1904
0.0190474
12.184
0.0194376
12.1773
0.0198361
12.1706
0.0202432
12.1637
0.020659
12.1566
0.0210838
12.1494
0.0215177
12.1421
0.0219611
12.1345
0.022414
12.1269
0.0228768
12.119
0.0233496
12.111
0.0238328
12.1029
0.0243265
12.0945
0.0248311
12.086
0.0253468
12.0773
0.0258739
12.0684
0.0264126
12.0593
0.0269633
12.05
0.0275262
12.0405
0.0281017
12.0308
0.0286901
12.0209
0.0292917
12.0108
0.0299068
12.0005
0.0305357
11.99
0.031179
11.9792
0.0318369
11.9682
0.0325098
11.9569
0.033198
11.9454
0.033902
11.9337
0.0346222
11.9217
0.0353591
11.9095
0.036113
11.897
0.0368845
11.8842
0.0376739
11.8711
0.0384818
11.8578
0.0393087
11.8441
0.0401549
11.8302
0.0410212
11.816
0.0419081
11.8014
0.042816
11.7866
0.0437455
11.7714
0.0446973
11.7559
0.0456719
11.74
0.0466699
11.7238
0.0476921
11.7073
0.048739
11.6904
0.0498113
11.6731
0.0509097
11.6554
0.052035
11.6374
0.0531878
11.6189
0.0543688
11.6001
0.055579
11.5808
0.056819
11.5612
0.0580897
11.541
0.0593919
11.5205
0.0607264
11.4995
0.0620942
11.478
0.063496
11.4561
0.064933
11.4337
0.066406
11.4107
0.0679159
11.3873
0.0694638
11.3634
0.0710507
11.3389
0.0726776
11.3139
0.0743457
11.2883
0.0760559
11.2622
0.0778094
11.2355
0.0796075
11.2082
0.0814511
11.1803
0.0833416
11.1518
0.0852802
11.1227
0.0872682
11.0929
0.0893068
11.0624
0.0913973
11.0313
0.0935413
10.9995
0.0957399
10.9669
0.0979946
10.9337
0.100307
10.8997
0.102678
10.8649
0.10511
10.8294
0.107604
10.7931
0.110162
10.756
0.112785
10.718
0.115476
10.6792
0.118234
10.6395
0.121064
10.599
0.123965
10.5575
0.126941
10.5151
0.129993
10.4718
0.133122
10.4275
0.136331
10.3822
0.139622
10.3358
0.142997
10.2885
0.146458
10.24
0.150007
10.1905
0.153646
10.1399
0.157377
10.0881
0.161204
10.0352
0.165127
9.98103
0.16915
9.92567
0.173275
9.86907
0.177505
9.81118
0.181842
9.75199
0.186289
9.69145
0.190849
9.62955
0.195524
9.56624
0.200318
9.5015
0.205233
9.43529
0.210272
9.36758
0.21544
9.29833
0.220738
9.22751
0.226171
9.15507
0.231741
0.237456
11.8011
0.00857823
-11.8031
11.7991
0.00874998
11.7971
0.00892532
11.795
0.00910435
11.7929
0.00928705
11.7907
0.00947347
11.7885
0.00966377
11.7862
0.00985804
11.7839
0.0100563
11.7816
0.0102587
11.7792
0.0104652
11.7767
0.0106761
11.7742
0.0108913
11.7717
0.011111
11.7691
0.0113353
11.7664
0.0115642
11.7637
0.011798
11.7609
0.0120365
11.7581
0.0122801
11.7552
0.0125286
11.7522
0.0127824
11.7492
0.0130416
11.7462
0.013306
11.743
0.0135761
11.7398
0.0138517
11.7365
0.0141332
11.7332
0.0144205
11.7298
0.0147138
11.7263
0.0150133
11.7227
0.0153191
11.7191
0.0156314
11.7154
0.0159501
11.7116
0.0162756
11.7077
0.0166079
11.7038
0.0169472
11.6997
0.0172937
11.6956
0.0176475
11.6914
0.0180087
11.6871
0.0183776
11.6827
0.0187543
11.6782
0.019139
11.6736
0.0195318
11.669
0.019933
11.6642
0.0203427
11.6593
0.0207611
11.6543
0.0211884
11.6492
0.0216249
11.644
0.0220707
11.6387
0.022526
11.6333
0.022991
11.6278
0.0234661
11.6221
0.0239513
11.6163
0.024447
11.6104
0.0249533
11.6044
0.0254706
11.5982
0.0259991
11.5919
0.0265389
11.5855
0.0270906
11.5789
0.0276541
11.5722
0.0282299
11.5654
0.0288183
11.5583
0.0294196
11.5512
0.030034
11.5439
0.0306618
11.5364
0.0313035
11.5288
0.0319593
11.521
0.0326295
11.513
0.0333145
11.5049
0.0340147
11.4965
0.0347305
11.4881
0.0354622
11.4794
0.0362102
11.4705
0.0369749
11.4614
0.0377568
11.4522
0.0385562
11.4427
0.0393737
11.433
0.0402095
11.4231
0.0410643
11.413
0.0419385
11.4027
0.0428325
11.3922
0.0437469
11.3814
0.0446822
11.3704
0.045639
11.3591
0.0466176
11.3476
0.0476189
11.3358
0.0486433
11.3238
0.0496913
11.3115
0.0507637
11.299
0.0518611
11.2862
0.0529841
11.2731
0.0541333
11.2596
0.0553094
11.246
0.0565132
11.232
0.0577454
11.2176
0.0590067
11.203
0.0602979
11.1881
0.0616197
11.1728
0.062973
11.1572
0.0643585
11.1412
0.0657772
11.1249
0.0672299
11.1082
0.0687174
11.0911
0.0702408
11.0737
0.071801
11.0559
0.0733988
11.0377
0.0750353
11.0191
0.0767116
11
0.0784286
10.9806
0.0801875
10.9607
0.0819893
10.9403
0.0838351
10.9195
0.0857261
10.8983
0.0876635
10.8765
0.0896485
10.8543
0.0916824
10.8316
0.0937663
10.8084
0.0959017
10.7846
0.0980898
10.7604
0.100332
10.7355
0.10263
10.7102
0.104984
10.6842
0.107397
10.6577
0.10987
10.6306
0.112405
10.6028
0.115002
10.5745
0.117664
10.5455
0.120393
10.5158
0.123189
10.4855
0.126055
10.4545
0.128993
10.4228
0.132004
10.3904
0.13509
10.3573
0.138253
10.3234
0.141495
10.2887
0.144818
10.2533
0.148224
10.217
0.151715
10.18
0.155293
10.1421
0.158961
10.1033
0.162721
10.0637
0.166574
10.0232
0.170523
9.98172
0.174572
9.93933
0.178721
9.89598
0.182974
9.85164
0.187333
9.8063
0.1918
9.75992
0.19638
9.7125
0.201073
9.66399
0.205884
9.61438
0.210814
9.56364
0.215868
9.51174
0.221047
9.45866
0.226356
9.40437
0.231796
9.34884
0.237373
9.29204
0.243088
9.23395
0.248945
9.17452
0.254949
9.11374
0.261101
9.05156
0.267408
8.98797
0.273871
8.92291
0.280496
8.85636
0.287285
8.78829
0.294245
8.71865
0.301377
0.308692
11.2346
0.0103695
-11.2364
11.2328
0.0105787
11.2309
0.0107924
11.229
0.0110106
11.2271
0.0112333
11.2251
0.0114606
11.223
0.0116927
11.221
0.0119296
11.2189
0.0121715
11.2167
0.0124184
11.2145
0.0126706
11.2122
0.012928
11.2099
0.0131909
11.2076
0.0134592
11.2052
0.0137332
11.2027
0.014013
11.2002
0.0142986
11.1977
0.0145903
11.1951
0.0148881
11.1924
0.0151921
11.1897
0.0155026
11.1869
0.0158196
11.1841
0.0161434
11.1812
0.0164739
11.1782
0.0168114
11.1752
0.0171561
11.1721
0.0175081
11.169
0.0178675
11.1657
0.0182345
11.1625
0.0186094
11.1591
0.0189922
11.1557
0.0193831
11.1522
0.0197823
11.1486
0.02019
11.1449
0.0206064
11.1412
0.0210317
11.1374
0.021466
11.1335
0.0219096
11.1295
0.0223627
11.1254
0.0228255
11.1212
0.0232982
11.117
0.023781
11.1126
0.0242741
11.1082
0.0247779
11.1037
0.0252924
11.0991
0.0258181
11.0943
0.026355
11.0895
0.0269036
11.0845
0.027464
11.0795
0.0280365
11.0743
0.0286213
11.0691
0.0292189
11.0637
0.0298294
11.0582
0.0304532
11.0526
0.0310906
11.0468
0.0317418
11.041
0.0324073
11.035
0.0330873
11.0288
0.0337822
11.0226
0.0344922
11.0162
0.0352179
11.0096
0.0359596
11.003
0.0367176
10.9961
0.0374923
10.9891
0.0382841
10.982
0.0390935
10.9747
0.0399208
10.9673
0.0407665
10.9597
0.041631
10.9519
0.0425148
10.9439
0.0434184
10.9358
0.0443421
10.9275
0.0452867
10.919
0.0462524
10.9103
0.0472399
10.9014
0.0482497
10.8923
0.0492823
10.8831
0.0503384
10.8736
0.0514184
10.8639
0.052523
10.854
0.0536528
10.8439
0.0548085
10.8335
0.0559906
10.8229
0.0571999
10.8121
0.058437
10.8011
0.0597026
10.7897
0.0609975
10.7782
0.0623223
10.7664
0.063678
10.7543
0.0650652
10.7419
0.0664847
10.7293
0.0679374
10.7164
0.0694241
10.7032
0.0709457
10.6897
0.072503
10.6759
0.0740971
10.6618
0.0757288
10.6474
0.0773991
10.6326
0.079109
10.6175
0.0808595
10.6021
0.0826516
10.5863
0.0844865
10.5702
0.0863652
10.5537
0.0882889
10.5369
0.0902586
10.5196
0.0922757
10.502
0.0943412
10.484
0.0964566
10.4655
0.0986229
10.4467
0.100842
10.4274
0.103114
10.4077
0.105441
10.3875
0.107825
10.3669
0.110267
10.3458
0.112768
10.3243
0.11533
10.3022
0.117955
10.2797
0.120643
10.2566
0.123398
10.233
0.126219
10.2089
0.12911
10.1842
0.132071
10.159
0.135105
10.1332
0.138214
10.1068
0.141399
10.0798
0.144662
10.0522
0.148005
10.0239
0.15143
9.99502
0.15494
9.96548
0.158536
9.93526
0.162221
9.90436
0.165996
9.87274
0.169865
9.84041
0.173829
9.80734
0.17789
9.77351
0.182052
9.73891
0.186316
9.70352
0.190686
9.66732
0.195163
9.63029
0.199751
9.59241
0.204452
9.55366
0.209269
9.51403
0.214204
9.47349
0.219262
9.43202
0.224444
9.38959
0.229755
9.3462
0.235196
9.30181
0.240771
9.2564
0.246484
9.20994
0.252338
9.16242
0.258337
9.11381
0.264483
9.06407
0.270781
9.01319
0.277234
8.96114
0.283846
8.9079
0.290621
8.85342
0.297563
8.79769
0.304677
8.74067
0.311966
8.68234
0.319435
8.62266
0.327088
8.5616
0.33493
8.49913
0.342966
8.43521
0.3512
8.36982
0.359638
8.30291
0.368285
0.377149
10.6949
0.0120125
-10.6966
10.6932
0.0122566
10.6915
0.0125059
10.6898
0.0127605
10.688
0.0130205
10.6862
0.0132859
10.6843
0.0135569
10.6824
0.0138337
10.6804
0.0141163
10.6785
0.0144048
10.6764
0.0146995
10.6744
0.0150003
10.6722
0.0153076
10.6701
0.0156214
10.6679
0.0159418
10.6656
0.016269
10.6633
0.0166032
10.661
0.0169444
10.6586
0.0172929
10.6561
0.0176489
10.6536
0.0180124
10.651
0.0183836
10.6484
0.0187627
10.6457
0.0191499
10.643
0.0195454
10.6402
0.0199493
10.6373
0.0203618
10.6344
0.0207832
10.6315
0.0212135
10.6284
0.0216531
10.6253
0.0221021
10.6221
0.0225607
10.6189
0.0230291
10.6156
0.0235076
10.6122
0.0239964
10.6087
0.0244956
10.6052
0.0250056
10.6015
0.0255267
10.5978
0.0260589
10.5941
0.0266026
10.5902
0.027158
10.5863
0.0277254
10.5822
0.0283051
10.5781
0.0288974
10.5739
0.0295025
10.5696
0.0301208
10.5652
0.0307524
10.5607
0.0313978
10.5561
0.0320572
10.5514
0.032731
10.5466
0.0334195
10.5417
0.034123
10.5367
0.0348419
10.5316
0.0355766
10.5264
0.0363273
10.521
0.0370946
10.5155
0.0378787
10.5099
0.03868
10.5042
0.039499
10.4984
0.0403361
10.4924
0.0411917
10.4863
0.0420662
10.4801
0.0429601
10.4737
0.0438738
10.4671
0.0448079
10.4605
0.0457628
10.4537
0.0467389
10.4467
0.0477369
10.4396
0.0487572
10.4323
0.0498004
10.4248
0.050867
10.4172
0.0519577
10.4094
0.0530729
10.4015
0.0542132
10.3933
0.0553794
10.385
0.0565721
10.3765
0.0577917
10.3678
0.0590392
10.3589
0.060315
10.3498
0.06162
10.3405
0.0629549
10.331
0.0643204
10.3213
0.0657171
10.3113
0.0671461
10.3011
0.068608
10.2907
0.0701036
10.2801
0.0716339
10.2692
0.0731996
10.2581
0.0748017
10.2467
0.0764411
10.2351
0.0781187
10.2232
0.0798355
10.211
0.0815925
10.1986
0.0833907
10.1859
0.0852312
10.1728
0.0871149
10.1595
0.089043
10.1459
0.0910167
10.132
0.0930371
10.1177
0.0951052
10.1032
0.0972225
10.0883
0.0993902
10.073
0.101609
10.0574
0.103881
10.0415
0.106208
10.0252
0.10859
10.0085
0.111029
9.9914
0.113526
9.97394
0.116084
9.95607
0.118703
9.9378
0.121385
9.91911
0.124131
9.9
0.126944
9.88044
0.129825
9.86043
0.132775
9.83996
0.135797
9.81903
0.138892
9.79761
0.142062
9.7757
0.145309
9.75328
0.148635
9.73035
0.152041
9.70689
0.15553
9.68289
0.159105
9.65834
0.162766
9.63322
0.166516
9.60753
0.170358
9.58124
0.174294
9.55434
0.178325
9.52683
0.182455
9.49868
0.186686
9.46988
0.19102
9.44041
0.195461
9.41027
0.200009
9.37943
0.204669
9.34788
0.209443
9.31559
0.214334
9.28257
0.219344
9.24877
0.224477
9.2142
0.229735
9.17883
0.235123
9.14264
0.240642
9.10561
0.246296
9.06773
0.252089
9.02897
0.258024
8.98931
0.264104
8.94873
0.270332
8.90721
0.276714
8.86473
0.283252
8.82127
0.28995
8.77679
0.296811
8.73129
0.303842
8.68473
0.311044
8.63709
0.318422
8.58834
0.325982
8.53846
0.333727
8.48742
0.341661
8.43519
0.34979
8.38175
0.358118
8.32706
0.366651
8.27111
0.375392
8.21385
0.384348
8.15525
0.393524
8.09529
0.402925
8.03394
0.412557
7.97115
0.422426
7.9069
0.432537
0.442901
10.1812
0.0135182
-10.1827
10.1796
0.0137949
10.178
0.0140774
10.1764
0.014366
10.1748
0.0146607
10.1731
0.0149617
10.1714
0.015269
10.1697
0.0155829
10.1679
0.0159035
10.166
0.0162308
10.1642
0.0165652
10.1623
0.0169067
10.1603
0.0172555
10.1583
0.0176117
10.1563
0.0179756
10.1542
0.0183472
10.1521
0.0187267
10.1499
0.0191144
10.1477
0.0195104
10.1454
0.0199149
10.1431
0.020328
10.1408
0.02075
10.1383
0.021181
10.1359
0.0216214
10.1334
0.0220712
10.1308
0.0225306
10.1281
0.0229999
10.1254
0.0234794
10.1227
0.0239691
10.1199
0.0244695
10.117
0.0249806
10.114
0.0255028
10.111
0.0260362
10.108
0.0265812
10.1048
0.027138
10.1016
0.0277069
10.0983
0.028288
10.095
0.0288818
10.0915
0.0294885
10.088
0.0301084
10.0845
0.0307417
10.0808
0.0313889
10.077
0.0320501
10.0732
0.0327257
10.0693
0.0334161
10.0653
0.0341217
10.0612
0.0348425
10.057
0.0355793
10.0528
0.0363321
10.0484
0.0371015
10.0439
0.0378878
10.0393
0.0386913
10.0347
0.0395126
10.0299
0.040352
10.025
0.0412098
10.02
0.0420867
10.0149
0.0429829
10.0097
0.043899
10.0044
0.0448354
9.99891
0.0457926
9.99333
0.0467711
9.98763
0.0477714
9.98179
0.048794
9.97583
0.0498394
9.96973
0.0509082
9.96349
0.052001
9.95711
0.0531183
9.95058
0.0542607
9.94391
0.0554288
9.93709
0.0566232
9.93011
0.0578446
9.92298
0.0590936
9.91568
0.0603709
9.90821
0.0616772
9.90058
0.0630131
9.89277
0.0643795
9.88479
0.0657771
9.87662
0.0672065
9.86827
0.0686687
9.85972
0.0701644
9.85098
0.0716944
9.84204
0.0732596
9.8329
0.0748609
9.82355
0.0764991
9.81398
0.0781752
9.80419
0.0798901
9.79418
0.0816449
9.78394
0.0834404
9.77347
0.0852776
9.76275
0.0871578
9.75179
0.0890818
9.74057
0.0910509
9.7291
0.0930661
9.71736
0.0951286
9.70535
0.0972396
9.69306
0.0994003
9.6805
0.101612
9.66764
0.103876
9.65448
0.106193
9.64102
0.108566
9.62725
0.110994
9.61316
0.113481
9.59874
0.116026
9.58399
0.118632
9.5689
0.1213
9.55346
0.124032
9.53766
0.126829
9.52149
0.129693
9.50495
0.132626
9.48802
0.135629
9.4707
0.138704
9.45298
0.141853
9.43485
0.145078
9.41629
0.14838
9.3973
0.151762
9.37788
0.155226
9.358
0.158773
9.33765
0.162405
9.31684
0.166126
9.29553
0.169936
9.27374
0.173839
9.25143
0.177836
9.22861
0.18193
9.20525
0.186123
9.18135
0.190418
9.15689
0.194817
9.13186
0.199323
9.10625
0.203938
9.08004
0.208665
9.05322
0.213507
9.02577
0.218467
8.99768
0.223548
8.96894
0.228752
8.93953
0.234082
8.90943
0.239543
8.87862
0.245136
8.8471
0.250865
8.81484
0.256734
8.78183
0.262746
8.74805
0.268904
8.71348
0.275213
8.6781
0.281675
8.6419
0.288294
8.60485
0.295075
8.56693
0.302021
8.52813
0.309136
8.48841
0.316425
8.44777
0.323891
8.40618
0.33154
8.36362
0.339375
8.32006
0.347401
8.27548
0.355623
8.22986
0.364045
8.18317
0.372673
8.13538
0.381512
8.08648
0.390566
8.03643
0.399841
7.9852
0.409342
7.93278
0.419076
7.87912
0.429047
7.82421
0.439262
7.76801
0.449727
7.71049
0.460448
7.65161
0.471431
7.59135
0.482683
7.52968
0.49421
0.506024
9.69195
0.0149001
-9.69333
9.69054
0.0152071
9.68909
0.0155206
9.68762
0.0158409
9.68611
0.016168
9.68457
0.0165021
9.683
0.0168434
9.68139
0.017192
9.67974
0.0175479
9.67806
0.0179116
9.67635
0.0182831
9.67459
0.0186625
9.67279
0.0190501
9.67096
0.019446
9.66909
0.0198505
9.66717
0.0202636
9.66521
0.0206856
9.66321
0.0211168
9.66116
0.0215572
9.65907
0.0220071
9.65693
0.0224667
9.65474
0.0229363
9.65251
0.023416
9.65022
0.0239061
9.64789
0.0244068
9.6455
0.0249183
9.64306
0.0254409
9.64056
0.0259748
9.63801
0.0265204
9.6354
0.0270778
9.63274
0.0276472
9.63001
0.0282291
9.62722
0.0288236
9.62437
0.0294311
9.62146
0.0300518
9.61848
0.030686
9.61544
0.0313341
9.61232
0.0319964
9.60914
0.0326731
9.60588
0.0333646
9.60255
0.0340713
9.59915
0.0347934
9.59567
0.0355314
9.59211
0.0362856
9.58847
0.0370564
9.58474
0.037844
9.58094
0.0386491
9.57704
0.0394719
9.57306
0.0403129
9.56899
0.0411724
9.56483
0.0420509
9.56057
0.0429489
9.55622
0.0438668
9.55176
0.044805
9.54721
0.0457641
9.54255
0.0467445
9.53779
0.0477467
9.53292
0.0487713
9.52793
0.0498187
9.52284
0.0508895
9.51762
0.0519843
9.51229
0.0531036
9.50684
0.054248
9.50126
0.0554181
9.49555
0.0566146
9.48971
0.057838
9.48374
0.059089
9.47764
0.0603683
9.47139
0.0616765
9.465
0.0630143
9.45846
0.0643826
9.45177
0.0657819
9.44493
0.0672131
9.43793
0.0686769
9.43077
0.0701741
9.42344
0.0717056
9.41595
0.0732722
9.40828
0.0748747
9.40043
0.0765141
9.39241
0.0781912
9.38419
0.0799069
9.37579
0.0816623
9.36719
0.0834582
9.3584
0.0852958
9.3494
0.087176
9.34019
0.0890999
9.33076
0.0910686
9.32112
0.0930832
9.31125
0.0951449
9.30116
0.0972547
9.29082
0.099414
9.28025
0.101624
9.26943
0.103886
9.25836
0.106201
9.24703
0.10857
9.23543
0.110996
9.22357
0.113478
9.21142
0.11602
9.19899
0.118622
9.18627
0.121285
9.17326
0.124011
9.15993
0.126803
9.1463
0.129661
9.13235
0.132586
9.11806
0.135582
9.10345
0.138649
9.08849
0.14179
9.07317
0.145005
9.0575
0.148298
9.04146
0.151669
9.02504
0.155122
9.00824
0.158657
8.99104
0.162277
8.97344
0.165984
8.95542
0.16978
8.93698
0.173668
8.9181
0.177649
8.89878
0.181727
8.879
0.185902
8.85876
0.190179
8.83804
0.194558
8.81683
0.199044
8.79512
0.203637
8.7729
0.208342
8.75016
0.213161
8.72688
0.218096
8.70306
0.22315
8.67867
0.228327
8.6537
0.233629
8.62815
0.23906
8.602
0.244622
8.57523
0.250319
8.54782
0.256154
8.51978
0.262131
8.49107
0.268252
8.46168
0.274522
8.4316
0.280944
8.40081
0.287522
8.3693
0.29426
8.33704
0.301161
8.30403
0.30823
8.27023
0.31547
8.23564
0.322886
8.20023
0.330483
8.16399
0.338263
8.12689
0.346233
8.08892
0.354397
8.05005
0.362759
8.01027
0.371324
7.96954
0.380098
7.92786
0.389085
7.88519
0.39829
7.84152
0.40772
7.79681
0.417379
7.75105
0.427273
7.70421
0.437407
7.65626
0.447788
7.60718
0.458423
7.55694
0.469316
7.50551
0.480474
7.45287
0.491905
7.39898
0.503614
7.34382
0.515609
7.28736
0.527897
7.22956
0.540485
7.17039
0.55338
0.566594
9.22618
0.0161678
-9.22744
9.22488
0.016503
9.22355
0.0168455
9.2222
0.0171954
9.22082
0.0175527
9.2194
0.0179178
9.21795
0.0182907
9.21647
0.0186716
9.21496
0.0190607
9.21341
0.0194583
9.21183
0.0198645
9.21022
0.0202794
9.20856
0.0207032
9.20687
0.0211363
9.20514
0.0215787
9.20338
0.0220307
9.20157
0.0224925
9.19972
0.0229643
9.19783
0.0234464
9.1959
0.0239389
9.19393
0.0244421
9.19191
0.0249562
9.18984
0.0254815
9.18773
0.0260183
9.18557
0.0265667
9.18336
0.0271271
9.1811
0.0276997
9.17879
0.0282848
9.17643
0.0288827
9.17401
0.0294936
9.17154
0.0301179
9.16902
0.0307558
9.16643
0.0314077
9.16379
0.032074
9.16109
0.0327548
9.15832
0.0334505
9.15549
0.0341615
9.1526
0.0348882
9.14964
0.0356308
9.14662
0.0363897
9.14352
0.0371654
9.14036
0.0379582
9.13712
0.0387685
9.13381
0.0395967
9.13042
0.0404432
9.12696
0.0413085
9.12342
0.0421928
9.11979
0.0430968
9.11608
0.0440209
9.11229
0.0449655
9.10841
0.0459311
9.10444
0.0469182
9.10038
0.0479273
9.09623
0.0489589
9.09198
0.0500136
9.08763
0.0510919
9.08318
0.0521943
9.07863
0.0533214
9.07398
0.0544738
9.06921
0.0556521
9.06434
0.0568569
9.05936
0.0580889
9.05426
0.0593486
9.04904
0.0606368
9.0437
0.0619542
9.03823
0.0633014
9.03264
0.0646791
9.02692
0.0660882
9.02107
0.0675293
9.01508
0.0690032
9.00895
0.0705108
9.00268
0.0720528
8.99627
0.0736301
8.9897
0.0752435
8.98298
0.0768939
8.9761
0.0785823
8.96907
0.0803096
8.96186
0.0820766
8.95449
0.0838844
8.94695
0.0857341
8.93923
0.0876266
8.93133
0.089563
8.92324
0.0915444
8.91497
0.0935718
8.9065
0.0956465
8.89783
0.0977696
8.88895
0.0999422
8.87987
0.102166
8.87058
0.104441
8.86106
0.10677
8.85132
0.109154
8.84135
0.111594
8.83114
0.114091
8.8207
0.116647
8.81
0.119264
8.79906
0.121943
8.78785
0.124684
8.77638
0.127491
8.76464
0.130365
8.75261
0.133307
8.74031
0.136318
8.72771
0.139402
8.71481
0.142558
8.70161
0.145791
8.68809
0.1491
8.67425
0.152488
8.66008
0.155958
8.64558
0.15951
8.63073
0.163148
8.61552
0.166873
8.59996
0.170687
8.58402
0.174593
8.56771
0.178592
8.551
0.182688
8.5339
0.186882
8.51639
0.191177
8.49847
0.195575
8.48012
0.200079
8.46133
0.204692
8.44209
0.209416
8.4224
0.214254
8.40223
0.219208
8.38159
0.224282
8.36045
0.229479
8.33881
0.2348
8.31665
0.240251
8.29397
0.245833
8.27075
0.25155
8.24697
0.257405
8.22263
0.263402
8.19771
0.269544
8.17219
0.275834
8.14607
0.282276
8.11933
0.288874
8.09195
0.295632
8.06391
0.302554
8.03522
0.309643
8.00584
0.316903
7.97576
0.32434
7.94496
0.331956
7.91343
0.339757
7.88115