/*--------------------------------*- C++ -*----------------------------------*\
  =========                 |
  \\      /  F ield         | OpenFOAM: The Open Source CFD Toolbox
   \\    /   O peration     | Website:  https://openfoam.org
    \\  /    A nd           | Version:  13
     \\/     M anipulation  |
\*---------------------------------------------------------------------------*/
FoamFile
{
    format      ascii;
    class       volVectorField;
    location    "0.2";
    object      U;
}
// * * * * * * * * * * * * * * * * * * * * * * * * * * * * * * * * * * * * * //

dimensions      [0 1 -1 0 0 0 0];

internalField   nonuniform List<vector> 
68864
(
(30.0154 -0.130147 -1.41782e-21)
(30.0154 -0.130685 -4.26067e-23)
(30.0155 -0.13123 1.14002e-20)
(30.0156 -0.131777 -1.27172e-20)
(30.0156 -0.132334 1.22997e-21)
(30.0157 -0.132898 -1.8711e-21)
(30.0157 -0.13347 5.70936e-21)
(30.0158 -0.134048 -1.86911e-21)
(30.0158 -0.134633 2.10014e-21)
(30.0159 -0.135225 -7.62433e-21)
(30.016 -0.135825 4.34849e-21)
(30.016 -0.136431 5.38623e-22)
(30.0161 -0.137045 -8.82017e-21)
(30.0161 -0.137665 3.60134e-21)
(30.0162 -0.138293 5.04592e-21)
(30.0163 -0.138929 -3.30698e-21)
(30.0163 -0.139572 5.11345e-21)
(30.0164 -0.140222 3.62855e-21)
(30.0164 -0.140879 -1.81863e-21)
(30.0165 -0.141544 -5.97177e-21)
(30.0166 -0.142217 8.76812e-21)
(30.0166 -0.142897 4.46756e-21)
(30.0167 -0.143584 -6.14691e-21)
(30.0168 -0.144279 -6.92744e-21)
(30.0168 -0.144982 4.10519e-21)
(30.0169 -0.145693 -8.09714e-21)
(30.017 -0.146411 3.70165e-21)
(30.017 -0.147137 8.08978e-21)
(30.0171 -0.14787 -1.77288e-20)
(30.0172 -0.148611 -1.24987e-20)
(30.0172 -0.14936 3.82676e-21)
(30.0173 -0.150117 1.03899e-20)
(30.0174 -0.150881 -7.51301e-21)
(30.0174 -0.151653 2.00143e-20)
(30.0175 -0.152433 1.19516e-20)
(30.0176 -0.15322 -2.15172e-20)
(30.0177 -0.154015 2.20059e-20)
(30.0177 -0.154818 -1.06135e-20)
(30.0178 -0.155628 -1.31654e-20)
(30.0179 -0.156446 2.71266e-20)
(30.018 -0.157271 -2.64753e-20)
(30.018 -0.158104 2.5518e-20)
(30.0181 -0.158945 -9.24535e-21)
(30.0182 -0.159792 3.61609e-22)
(30.0183 -0.160647 -2.74837e-20)
(30.0183 -0.16151 3.17722e-20)
(30.0184 -0.162379 -9.7331e-21)
(30.0185 -0.163256 -9.46984e-21)
(30.0186 -0.164139 -8.65623e-22)
(30.0187 -0.165029 1.30796e-20)
(30.0188 -0.165927 -1.04394e-20)
(30.0188 -0.166831 -3.83197e-21)
(30.0189 -0.167741 2.04988e-20)
(30.019 -0.168658 -8.86879e-21)
(30.0191 -0.169581 3.93232e-21)
(30.0192 -0.17051 -9.11974e-21)
(30.0193 -0.171446 1.32798e-20)
(30.0194 -0.172387 -1.17357e-20)
(30.0195 -0.173333 7.99875e-21)
(30.0196 -0.174285 -1.93702e-20)
(30.0196 -0.175243 3.02974e-21)
(30.0197 -0.176205 1.46104e-20)
(30.0198 -0.177172 -3.78032e-21)
(30.0199 -0.178144 1.10374e-20)
(30.02 -0.17912 -1.17571e-20)
(30.0201 -0.180101 4.27347e-21)
(30.0202 -0.181085 -5.13474e-21)
(30.0203 -0.182073 3.43687e-21)
(30.0204 -0.183064 2.90184e-22)
(30.0205 -0.184058 4.29715e-21)
(30.0206 -0.185055 4.1279e-21)
(30.0207 -0.186054 -4.2625e-21)
(30.0208 -0.187055 -1.64681e-20)
(30.0209 -0.188058 1.84632e-20)
(30.021 -0.189063 -7.97796e-21)
(30.0211 -0.190068 -6.49909e-21)
(30.0213 -0.191075 2.11182e-20)
(30.0214 -0.192081 -2.41381e-20)
(30.0215 -0.193088 9.4377e-21)
(30.0216 -0.194094 -1.32692e-20)
(30.0217 -0.1951 2.40615e-20)
(30.0218 -0.196104 -1.60504e-20)
(30.0219 -0.197107 4.33472e-21)
(30.022 -0.198107 1.15403e-20)
(30.0221 -0.199105 -1.43051e-20)
(30.0222 -0.2001 -2.16316e-21)
(30.0223 -0.201092 1.15771e-20)
(30.0225 -0.20208 -4.05027e-21)
(30.0226 -0.203064 -7.97626e-21)
(30.0227 -0.204043 1.4413e-20)
(30.0228 -0.205017 4.11902e-21)
(30.0229 -0.205985 4.41286e-21)
(30.023 -0.206948 -1.8483e-20)
(30.0231 -0.207903 7.36142e-21)
(30.0232 -0.208852 -1.95437e-20)
(30.0233 -0.209793 2.26013e-20)
(30.0234 -0.210727 -3.07446e-20)
(30.0236 -0.211652 2.39849e-20)
(30.0237 -0.212568 1.28712e-21)
(30.0238 -0.213475 -2.39423e-20)
(30.0239 -0.214372 3.41893e-20)
(30.024 -0.215259 -1.14278e-20)
(30.0241 -0.216135 -1.61301e-20)
(30.0242 -0.217001 2.03074e-21)
(30.0243 -0.217854 6.4614e-21)
(30.0244 -0.218697 -4.17809e-21)
(30.0245 -0.219526 1.23067e-20)
(30.0246 -0.220344 3.62795e-21)
(30.0247 -0.221148 -1.56346e-20)
(30.0248 -0.221939 2.27523e-21)
(30.0249 -0.222716 2.1878e-21)
(30.025 -0.22348 1.01675e-21)
(30.0251 -0.224229 3.24285e-21)
(30.0252 -0.224963 -9.28282e-21)
(30.0253 -0.225683 1.1873e-20)
(30.0253 -0.226387 -5.16958e-21)
(30.0254 -0.227077 5.28498e-22)
(30.0255 -0.22775 7.62017e-21)
(30.0256 -0.228408 -3.20583e-21)
(30.0257 -0.22905 -4.68159e-21)
(30.0258 -0.229676 -3.24945e-21)
(30.0258 -0.230286 5.77067e-21)
(30.0259 -0.23088 -4.30517e-21)
(30.026 -0.231457 8.79992e-21)
(30.026 -0.232017 -6.16698e-22)
(30.0261 -0.232562 7.66343e-22)
(30.0262 -0.233089 -5.14356e-21)
(30.0262 -0.233601 -1.06037e-21)
(30.0263 -0.234095 -1.8474e-21)
(30.0264 -0.234574 2.89121e-21)
(30.0264 -0.235036 -1.95473e-21)
(30.0265 -0.235481 3.8991e-21)
(30.0265 -0.235911 -2.34584e-21)
(30.0266 -0.236324 -4.98385e-24)
(30.0266 -0.236721 1.60223e-21)
(30.0267 -0.237103 -2.62599e-21)
(30.0267 -0.237469 8.42135e-22)
(30.0268 -0.23782 1.83993e-22)
(30.0268 -0.238155 2.02845e-22)
(30.0269 -0.238476 1.18016e-21)
(30.0269 -0.238781 -2.54101e-21)
(30.0269 -0.239072 2.60474e-21)
(30.027 -0.239349 -1.87434e-21)
(30.027 -0.239612 -7.57995e-22)
(30.027 -0.23986 5.14272e-22)
(30.0271 -0.240096 1.54222e-21)
(30.0271 -0.240318 -3.15844e-22)
(30.0271 -0.240527 -1.10751e-21)
(30.0271 -0.240723 5.31823e-22)
(30.0272 -0.240907 6.27644e-22)
(30.0272 -0.241079 -8.0286e-22)
(30.0272 -0.241238 4.7041e-22)
(30.0272 -0.241386 -1.22876e-22)
(30.0272 -0.241523 -2.227e-22)
(30.0272 -0.241648 2.84422e-24)
(30.0273 -0.241762 1.00963e-22)
(30.0273 -0.241865 1.13412e-22)
(30.0273 -0.241958 -1.06061e-22)
(30.0273 -0.24204 2.28199e-23)
(30.0273 -0.242112 2.21743e-24)
(30.0273 -0.242173 1.19235e-23)
(30.0273 -0.242224 4.10585e-23)
(30.0274 -0.242264 -3.74067e-23)
(30.0274 -0.242295 1.71899e-23)
(30.0274 -0.242315 -1.77517e-23)
(30.0274 -0.242326 1.86632e-24)
(30.0274 -0.24232 5.40901e-25)
(30.0162 -0.130691 -3.11599e-21)
(30.0163 -0.131181 2.73618e-21)
(30.0164 -0.131679 -3.34286e-20)
(30.0164 -0.132179 5.20044e-21)
(30.0165 -0.132688 6.05444e-21)
(30.0166 -0.133206 2.46129e-20)
(30.0166 -0.13373 -3.02672e-20)
(30.0167 -0.134262 2.97552e-20)
(30.0168 -0.134802 -4.08777e-20)
(30.0168 -0.135348 4.59341e-21)
(30.0169 -0.135902 1.7595e-20)
(30.017 -0.136464 -1.70796e-20)
(30.0171 -0.137033 -1.41599e-21)
(30.0171 -0.137609 1.62773e-20)
(30.0172 -0.138193 6.79207e-22)
(30.0173 -0.138785 -6.16892e-21)
(30.0174 -0.139385 1.79823e-20)
(30.0174 -0.139992 -1.29824e-20)
(30.0175 -0.140607 3.96136e-21)
(30.0176 -0.14123 3.58417e-21)
(30.0177 -0.141861 -4.12564e-21)
(30.0178 -0.1425 -3.24746e-21)
(30.0179 -0.143147 2.83949e-20)
(30.0179 -0.143802 -3.82921e-20)
(30.018 -0.144465 -5.93912e-21)
(30.0181 -0.145137 3.04219e-20)
(30.0182 -0.145816 -1.68617e-20)
(30.0183 -0.146504 1.10127e-20)
(30.0184 -0.147199 -1.97581e-20)
(30.0185 -0.147903 1.16501e-20)
(30.0186 -0.148615 -1.4457e-20)
(30.0187 -0.149336 2.9567e-20)
(30.0188 -0.150065 -2.38491e-20)
(30.0189 -0.150802 -1.80762e-20)
(30.019 -0.151547 6.91651e-20)
(30.0191 -0.152301 2.97056e-21)
(30.0192 -0.153062 -3.24786e-20)
(30.0193 -0.153832 1.88487e-21)
(30.0194 -0.154611 1.25657e-20)
(30.0195 -0.155397 -7.14649e-21)
(30.0196 -0.156192 -2.04678e-20)
(30.0197 -0.156995 1.30573e-20)
(30.0198 -0.157806 1.53745e-20)
(30.0199 -0.158625 -2.15696e-20)
(30.0201 -0.159452 -1.57693e-20)
(30.0202 -0.160287 3.37286e-20)
(30.0203 -0.161129 -5.79438e-20)
(30.0204 -0.16198 6.96308e-20)
(30.0205 -0.162838 -3.87988e-20)
(30.0207 -0.163704 -2.05894e-20)
(30.0208 -0.164578 6.7519e-21)
(30.0209 -0.165459 4.76784e-20)
(30.0211 -0.166347 -4.21051e-22)
(30.0212 -0.167243 3.82057e-21)
(30.0213 -0.168146 -4.30056e-20)
(30.0215 -0.169055 -1.62087e-20)
(30.0216 -0.169972 2.7981e-20)
(30.0217 -0.170895 -1.35309e-20)
(30.0219 -0.171825 5.01962e-21)
(30.022 -0.172761 -2.099e-21)
(30.0222 -0.173703 1.24087e-21)
(30.0223 -0.174651 1.27071e-20)
(30.0225 -0.175604 3.56812e-20)
(30.0226 -0.176564 -5.0176e-20)
(30.0228 -0.177528 2.45401e-20)
(30.0229 -0.178498 -3.80026e-20)
(30.0231 -0.179473 -1.2511e-20)
(30.0233 -0.180452 4.04267e-20)
(30.0234 -0.181435 1.51378e-20)
(30.0236 -0.182422 -1.01754e-20)
(30.0238 -0.183413 -2.36438e-20)
(30.0239 -0.184408 3.55426e-20)
(30.0241 -0.185405 -1.62092e-20)
(30.0243 -0.186406 1.30221e-20)
(30.0244 -0.187409 -2.33491e-20)
(30.0246 -0.188414 2.06276e-20)
(30.0248 -0.189421 1.23279e-20)
(30.025 -0.190429 9.60851e-22)
(30.0252 -0.191438 -3.97577e-20)
(30.0253 -0.192448 2.82539e-20)
(30.0255 -0.193458 -4.45289e-20)
(30.0257 -0.194468 2.99864e-20)
(30.0259 -0.195477 -1.33397e-20)
(30.0261 -0.196485 1.6586e-20)
(30.0263 -0.197492 -1.37291e-20)
(30.0265 -0.198497 2.66622e-20)
(30.0267 -0.1995 -2.0024e-20)
(30.0269 -0.200499 5.63463e-21)
(30.0271 -0.201496 -1.66993e-21)
(30.0272 -0.202489 -1.63876e-20)
(30.0274 -0.203478 3.2194e-20)
(30.0276 -0.204462 -1.43017e-20)
(30.0278 -0.205441 -9.18556e-21)
(30.028 -0.206414 -6.86379e-21)
(30.0282 -0.207382 -2.86855e-21)
(30.0284 -0.208343 7.52886e-21)
(30.0286 -0.209296 1.60741e-20)
(30.0288 -0.210243 8.08814e-21)
(30.029 -0.211181 -2.71139e-20)
(30.0292 -0.21211 -7.92283e-21)
(30.0294 -0.213031 8.16294e-21)
(30.0296 -0.213943 1.56011e-20)
(30.0298 -0.214844 3.74014e-21)
(30.03 -0.215735 -3.92914e-21)
(30.0301 -0.216616 -9.95684e-21)
(30.0303 -0.217485 -4.23923e-21)
(30.0305 -0.218342 6.43893e-21)
(30.0307 -0.219188 1.60107e-20)
(30.0309 -0.22002 -1.53827e-20)
(30.0311 -0.22084 4.37574e-21)
(30.0312 -0.221647 -1.10669e-20)
(30.0314 -0.22244 1.72586e-20)
(30.0316 -0.223219 -8.00624e-21)
(30.0318 -0.223984 -2.95365e-21)
(30.0319 -0.224734 1.34807e-20)
(30.0321 -0.22547 -1.57151e-20)
(30.0322 -0.22619 -4.84348e-22)
(30.0324 -0.226894 4.92665e-21)
(30.0326 -0.227583 8.12278e-21)
(30.0327 -0.228256 -7.11299e-21)
(30.0329 -0.228913 -6.21185e-21)
(30.033 -0.229553 9.91608e-21)
(30.0331 -0.230178 -5.38524e-21)
(30.0333 -0.230785 1.16731e-21)
(30.0334 -0.231376 7.73502e-22)
(30.0335 -0.23195 -6.94456e-21)
(30.0337 -0.232507 7.89516e-22)
(30.0338 -0.233047 -1.56207e-22)
(30.0339 -0.233571 9.85957e-21)
(30.034 -0.234077 -3.95079e-21)
(30.0341 -0.234567 1.76377e-21)
(30.0342 -0.23504 -2.40835e-21)
(30.0343 -0.235496 1.95991e-21)
(30.0344 -0.235936 -2.85519e-21)
(30.0345 -0.236359 6.00808e-21)
(30.0346 -0.236765 -6.72829e-21)
(30.0347 -0.237155 4.35247e-21)
(30.0348 -0.237529 -3.81566e-21)
(30.0349 -0.237887 6.39545e-23)
(30.0349 -0.23823 4.54818e-21)
(30.035 -0.238557 -8.75382e-22)
(30.0351 -0.238868 -1.6677e-21)
(30.0352 -0.239165 1.70753e-21)
(30.0352 -0.239447 5.85331e-22)
(30.0353 -0.239714 -3.08999e-21)
(30.0353 -0.239966 -2.83212e-22)
(30.0354 -0.240205 3.51556e-21)
(30.0354 -0.24043 -3.18872e-21)
(30.0355 -0.240641 1.99492e-21)
(30.0355 -0.240839 8.07004e-22)
(30.0355 -0.241025 -2.51588e-21)
(30.0356 -0.241197 6.74069e-22)
(30.0356 -0.241357 -6.00862e-22)
(30.0356 -0.241504 4.91165e-22)
(30.0357 -0.24164 3.0065e-22)
(30.0357 -0.241764 -3.8076e-22)
(30.0357 -0.241876 8.12197e-22)
(30.0357 -0.241977 -7.41121e-22)
(30.0357 -0.242067 3.04573e-22)
(30.0358 -0.242146 -7.01668e-23)
(30.0358 -0.242213 1.8844e-22)
(30.0358 -0.242269 -3.79596e-23)
(30.0358 -0.242315 -7.08771e-23)
(30.0358 -0.242349 5.55916e-23)
(30.0358 -0.242371 -5.26396e-23)
(30.0358 -0.242383 7.52554e-24)
(30.0358 -0.242376 -4.65208e-24)
(30.0064 -0.130769 -2.34024e-20)
(30.0065 -0.131265 -9.12401e-21)
(30.0066 -0.131769 -1.00451e-20)
(30.0067 -0.132274 2.31747e-20)
(30.0068 -0.132789 -2.89108e-20)
(30.0069 -0.133312 5.32807e-20)
(30.007 -0.133843 -7.4486e-21)
(30.0071 -0.13438 2.03787e-21)
(30.0072 -0.134925 3.24857e-22)
(30.0073 -0.135477 5.30936e-21)
(30.0074 -0.136036 -3.8576e-20)
(30.0075 -0.136603 1.41482e-20)
(30.0076 -0.137178 1.73984e-20)
(30.0077 -0.13776 1.71159e-20)
(30.0078 -0.138349 -2.19236e-20)
(30.0079 -0.138946 1.26838e-20)
(30.008 -0.139551 -2.10381e-21)
(30.0081 -0.140164 1.42894e-21)
(30.0082 -0.140784 -1.87641e-20)
(30.0083 -0.141413 -3.15834e-21)
(30.0085 -0.142049 -1.06704e-20)
(30.0086 -0.142693 -1.14271e-20)
(30.0087 -0.143345 1.84917e-20)
(30.0088 -0.144006 5.25044e-21)
(30.0089 -0.144674 -2.67906e-20)
(30.0091 -0.14535 4.65329e-20)
(30.0092 -0.146035 -3.75275e-20)
(30.0093 -0.146728 6.7588e-21)
(30.0095 -0.147428 3.29164e-20)
(30.0096 -0.148138 1.68472e-21)
(30.0098 -0.148855 -4.42657e-20)
(30.0099 -0.14958 3.25127e-20)
(30.01 -0.150314 -3.71845e-20)
(30.0102 -0.151056 -7.57371e-21)
(30.0103 -0.151807 3.26773e-20)
(30.0105 -0.152565 -6.96861e-21)
(30.0106 -0.153332 -1.09784e-20)
(30.0108 -0.154107 2.06622e-20)
(30.011 -0.154891 5.81097e-21)
(30.0111 -0.155682 1.68046e-20)
(30.0113 -0.156482 -8.4641e-20)
(30.0115 -0.15729 1.71836e-20)
(30.0116 -0.158106 8.94535e-20)
(30.0118 -0.158929 -1.01719e-19)
(30.012 -0.159761 8.67106e-22)
(30.0122 -0.160601 5.63689e-20)
(30.0123 -0.161449 4.65029e-20)
(30.0125 -0.162305 -2.83256e-20)
(30.0127 -0.163168 1.35671e-20)
(30.0129 -0.164039 -2.33732e-20)
(30.0131 -0.164917 5.38332e-21)
(30.0133 -0.165803 -2.48152e-20)
(30.0135 -0.166696 5.00699e-20)
(30.0137 -0.167596 8.04914e-21)
(30.0139 -0.168503 -4.58071e-20)
(30.0141 -0.169418 -4.25055e-20)
(30.0143 -0.170339 9.86527e-21)
(30.0145 -0.171266 7.39376e-20)
(30.0148 -0.1722 -3.37111e-20)
(30.015 -0.173141 -3.39902e-20)
(30.0152 -0.174087 -1.92437e-20)
(30.0154 -0.175039 3.71335e-20)
(30.0157 -0.175997 6.02942e-20)
(30.0159 -0.17696 -8.47756e-20)
(30.0161 -0.177929 3.63164e-20)
(30.0164 -0.178903 1.41366e-20)
(30.0166 -0.179881 2.63251e-20)
(30.0169 -0.180863 -3.8497e-20)
(30.0171 -0.18185 1.11267e-20)
(30.0174 -0.182841 -1.34495e-20)
(30.0176 -0.183835 4.71498e-20)
(30.0179 -0.184833 -1.63173e-21)
(30.0182 -0.185834 -4.51226e-20)
(30.0184 -0.186837 9.62911e-21)
(30.0187 -0.187842 -1.59613e-21)
(30.019 -0.18885 1.01284e-20)
(30.0193 -0.189859 -2.49133e-20)
(30.0195 -0.190869 -1.57904e-20)
(30.0198 -0.191881 -2.65775e-21)
(30.0201 -0.192892 1.57939e-20)
(30.0204 -0.193904 -2.1537e-20)
(30.0207 -0.194915 5.98129e-20)
(30.021 -0.195926 -2.83536e-21)
(30.0212 -0.196935 -3.98047e-20)
(30.0215 -0.197942 4.90078e-21)
(30.0218 -0.198948 2.50673e-20)
(30.0221 -0.199951 -1.28324e-20)
(30.0224 -0.200951 -4.6471e-20)
(30.0227 -0.201948 5.75401e-20)
(30.023 -0.20294 -1.88553e-20)
(30.0233 -0.203928 -1.62894e-20)
(30.0236 -0.204912 -1.41077e-20)
(30.0239 -0.20589 8.57438e-21)
(30.0242 -0.206862 5.51473e-20)
(30.0245 -0.207828 -2.38493e-20)
(30.0249 -0.208787 -1.0581e-20)
(30.0252 -0.209738 3.53131e-20)
(30.0255 -0.210682 -3.65266e-20)
(30.0258 -0.211618 3.0226e-20)
(30.0261 -0.212545 -2.98939e-20)
(30.0264 -0.213463 -5.72753e-21)
(30.0267 -0.214371 -5.56758e-22)
(30.027 -0.215269 4.04961e-21)
(30.0273 -0.216157 1.22688e-20)
(30.0276 -0.217033 5.3354e-21)
(30.0278 -0.217898 -3.78906e-20)
(30.0281 -0.218751 1.873e-20)
(30.0284 -0.219592 2.85748e-20)
(30.0287 -0.220421 -5.54837e-21)
(30.029 -0.221236 -3.65788e-20)
(30.0293 -0.222037 3.93856e-20)
(30.0295 -0.222825 -1.99428e-20)
(30.0298 -0.223599 1.93624e-20)
(30.0301 -0.224358 -2.47704e-21)
(30.0303 -0.225103 -2.83471e-20)
(30.0306 -0.225832 4.39087e-21)
(30.0309 -0.226546 4.32192e-21)
(30.0311 -0.227245 5.82594e-21)
(30.0314 -0.227927 -1.53059e-21)
(30.0316 -0.228594 -7.92357e-21)
(30.0318 -0.229244 -3.5932e-21)
(30.0321 -0.229878 -7.66116e-21)
(30.0323 -0.230496 2.16823e-20)
(30.0325 -0.231097 4.08437e-21)
(30.0327 -0.231681 -1.57188e-20)
(30.0329 -0.232248 1.14319e-21)
(30.0331 -0.232798 3.32371e-22)
(30.0333 -0.233332 -7.12833e-21)
(30.0335 -0.233848 4.99071e-21)
(30.0337 -0.234348 6.08378e-21)
(30.0339 -0.234831 6.94773e-21)
(30.034 -0.235297 -6.28954e-21)
(30.0342 -0.235746 1.90459e-21)
(30.0344 -0.236178 -6.5149e-21)
(30.0345 -0.236594 4.93316e-21)
(30.0347 -0.236994 -1.03383e-21)
(30.0348 -0.237377 1.23473e-21)
(30.035 -0.237745 -6.8399e-22)
(30.0351 -0.238096 1.56385e-21)
(30.0352 -0.238432 -2.40608e-21)
(30.0353 -0.238752 -3.83073e-23)
(30.0355 -0.239057 1.44572e-21)
(30.0356 -0.239347 1.55398e-21)
(30.0357 -0.239622 7.92323e-22)
(30.0358 -0.239883 -6.13626e-21)
(30.0359 -0.240129 1.4463e-21)
(30.036 -0.240362 4.26799e-21)
(30.036 -0.240581 -3.10284e-21)
(30.0361 -0.240786 -4.62131e-22)
(30.0362 -0.240978 1.34524e-21)
(30.0363 -0.241158 -3.28709e-21)
(30.0363 -0.241324 2.62048e-21)
(30.0364 -0.241479 -6.64109e-22)
(30.0365 -0.241621 1.01824e-21)
(30.0365 -0.241751 -5.89616e-22)
(30.0366 -0.24187 2.65437e-23)
(30.0366 -0.241977 4.04867e-22)
(30.0367 -0.242073 -4.4572e-22)
(30.0367 -0.242158 4.34846e-22)
(30.0368 -0.242231 -6.53081e-22)
(30.0368 -0.242294 8.26073e-23)
(30.0369 -0.242346 2.11208e-22)
(30.0369 -0.242386 -4.10896e-23)
(30.0369 -0.242416 7.91602e-24)
(30.037 -0.242434 4.90194e-23)
(30.037 -0.242441 -1.8952e-23)
(30.037 -0.242428 6.55331e-24)
(30.002 -0.132276 7.48739e-21)
(30.0021 -0.132741 -1.14868e-20)
(30.0022 -0.133214 2.77162e-20)
(30.0023 -0.133688 -2.92811e-20)
(30.0025 -0.134172 6.17906e-20)
(30.0026 -0.134665 -8.77244e-20)
(30.0027 -0.135164 4.79124e-20)
(30.0028 -0.135671 3.5711e-20)
(30.0029 -0.136185 1.65641e-20)
(30.003 -0.136706 -4.46699e-20)
(30.0031 -0.137235 3.73855e-20)
(30.0033 -0.137771 -3.45329e-20)
(30.0034 -0.138315 2.06202e-20)
(30.0035 -0.138866 -1.84805e-20)
(30.0036 -0.139425 3.77479e-21)
(30.0038 -0.139992 -2.71019e-20)
(30.0039 -0.140567 -1.35169e-20)
(30.004 -0.141149 6.12631e-20)
(30.0042 -0.14174 -1.78224e-20)
(30.0043 -0.142338 -5.34309e-20)
(30.0044 -0.142945 -1.81279e-20)
(30.0046 -0.143559 2.24161e-20)
(30.0047 -0.144182 -2.49268e-20)
(30.0049 -0.144813 4.88832e-20)
(30.005 -0.145452 -5.35643e-21)
(30.0052 -0.1461 1.23609e-20)
(30.0053 -0.146756 -3.24407e-20)
(30.0055 -0.14742 2.47889e-20)
(30.0056 -0.148093 2.38354e-20)
(30.0058 -0.148774 2.08646e-20)
(30.006 -0.149463 -3.50777e-20)
(30.0061 -0.150162 -3.21714e-21)
(30.0063 -0.150868 -5.04375e-20)
(30.0065 -0.151583 8.38499e-20)
(30.0067 -0.152307 -6.91857e-20)
(30.0068 -0.153039 5.04737e-21)
(30.007 -0.15378 2.07769e-20)
(30.0072 -0.15453 -2.82823e-20)
(30.0074 -0.155288 7.32283e-20)
(30.0076 -0.156054 -7.97832e-20)
(30.0078 -0.156829 8.86701e-20)
(30.008 -0.157612 -7.5554e-20)
(30.0082 -0.158404 3.33515e-20)
(30.0084 -0.159205 2.67668e-20)
(30.0086 -0.160013 -4.24463e-20)
(30.0089 -0.16083 1.90295e-20)
(30.0091 -0.161656 -2.60162e-20)
(30.0093 -0.162489 2.06262e-20)
(30.0095 -0.163331 1.7438e-20)
(30.0098 -0.16418 -1.07962e-20)
(30.01 -0.165038 -6.65312e-21)
(30.0102 -0.165903 6.98358e-20)
(30.0105 -0.166776 -1.034e-19)
(30.0107 -0.167657 6.66878e-20)
(30.011 -0.168545 2.14093e-20)
(30.0112 -0.16944 -9.39779e-20)
(30.0115 -0.170343 2.9613e-20)
(30.0118 -0.171253 -2.61196e-20)
(30.012 -0.17217 9.07819e-20)
(30.0123 -0.173093 -7.40705e-20)
(30.0126 -0.174023 1.85825e-20)
(30.0129 -0.174959 -1.71636e-20)
(30.0132 -0.175901 8.99562e-20)
(30.0134 -0.176849 -4.05452e-20)
(30.0137 -0.177803 4.2483e-20)
(30.014 -0.178763 -1.00253e-19)
(30.0143 -0.179727 -4.32186e-20)
(30.0147 -0.180697 3.06984e-20)
(30.015 -0.181671 3.42047e-20)
(30.0153 -0.182649 3.23707e-20)
(30.0156 -0.183632 2.3932e-20)
(30.0159 -0.184618 -1.12024e-19)
(30.0163 -0.185608 6.41071e-20)
(30.0166 -0.1866 -3.60447e-20)
(30.0169 -0.187596 3.6514e-20)
(30.0173 -0.188594 3.86707e-20)
(30.0176 -0.189594 -9.57779e-20)
(30.018 -0.190596 1.18123e-19)
(30.0183 -0.191599 -3.61154e-20)
(30.0187 -0.192602 -3.75252e-20)
(30.019 -0.193607 4.89381e-20)
(30.0194 -0.194611 -5.7426e-20)
(30.0198 -0.195615 -2.4378e-20)
(30.0201 -0.196619 2.37514e-20)
(30.0205 -0.197621 4.98785e-20)
(30.0209 -0.198621 -2.7125e-20)
(30.0212 -0.19962 1.46907e-20)
(30.0216 -0.200616 -2.12799e-20)
(30.022 -0.201608 1.40627e-21)
(30.0224 -0.202598 -4.53538e-20)
(30.0228 -0.203583 5.78431e-20)
(30.0231 -0.204564 -1.8733e-20)
(30.0235 -0.20554 5.56833e-20)
(30.0239 -0.20651 -4.03624e-20)
(30.0243 -0.207475 -2.53033e-20)
(30.0247 -0.208433 9.33597e-22)
(30.0251 -0.209384 -7.64094e-21)
(30.0254 -0.210328 -1.28877e-20)
(30.0258 -0.211264 5.94781e-21)
(30.0262 -0.212192 -1.05328e-20)
(30.0266 -0.213111 2.12003e-20)
(30.027 -0.21402 3.62334e-20)
(30.0274 -0.21492 -1.99459e-20)
(30.0277 -0.21581 4.06559e-20)
(30.0281 -0.216689 -2.55985e-20)
(30.0285 -0.217557 1.27996e-20)
(30.0288 -0.218413 -2.48884e-20)
(30.0292 -0.219258 -2.19385e-21)
(30.0296 -0.22009 2.08429e-20)
(30.0299 -0.22091 -4.27043e-20)
(30.0303 -0.221716 3.46181e-20)
(30.0306 -0.222509 1.23899e-20)
(30.031 -0.223288 -4.30259e-20)
(30.0313 -0.224052 3.32766e-20)
(30.0316 -0.224803 -1.41253e-20)
(30.032 -0.225538 -1.07635e-20)
(30.0323 -0.226259 -8.28387e-21)
(30.0326 -0.226964 3.36182e-21)
(30.0329 -0.227654 -7.93526e-21)
(30.0332 -0.228327 1.63494e-20)
(30.0335 -0.228985 -5.38769e-21)
(30.0338 -0.229627 1.68318e-20)
(30.0341 -0.230252 -2.24896e-20)
(30.0343 -0.230861 1.33852e-20)
(30.0346 -0.231453 1.28389e-20)
(30.0349 -0.232029 -1.94803e-20)
(30.0351 -0.232588 8.70863e-21)
(30.0354 -0.23313 -1.01298e-21)
(30.0356 -0.233655 3.61679e-22)
(30.0358 -0.234164 -1.069e-20)
(30.036 -0.234655 2.70054e-20)
(30.0362 -0.23513 -2.27461e-20)
(30.0364 -0.235588 1.10594e-20)
(30.0366 -0.23603 1.51328e-21)
(30.0368 -0.236455 -3.76934e-22)
(30.037 -0.236863 -8.71039e-22)
(30.0372 -0.237256 -8.11432e-21)
(30.0373 -0.237632 7.0904e-21)
(30.0375 -0.237992 2.32135e-21)
(30.0376 -0.238337 -7.01083e-21)
(30.0377 -0.238665 -2.36814e-22)
(30.0379 -0.238979 1.93794e-21)
(30.038 -0.239277 3.51765e-21)
(30.0381 -0.239561 1.07327e-22)
(30.0382 -0.23983 -1.94842e-21)
(30.0383 -0.240084 1.33845e-22)
(30.0384 -0.240324 -2.87391e-22)
(30.0385 -0.24055 -2.63364e-21)
(30.0386 -0.240763 8.36268e-21)
(30.0386 -0.240962 -3.85604e-21)
(30.0387 -0.241148 -1.15279e-21)
(30.0388 -0.241322 5.85788e-22)
(30.0388 -0.241482 1.75607e-21)
(30.0389 -0.24163 -9.93024e-23)
(30.0389 -0.241767 -1.46726e-21)
(30.0389 -0.241891 -2.99742e-22)
(30.039 -0.242003 1.33617e-21)
(30.039 -0.242104 -4.54282e-22)
(30.039 -0.242193 1.3417e-22)
(30.039 -0.242271 -1.86186e-22)
(30.039 -0.242338 -8.59906e-23)
(30.0391 -0.242393 2.01597e-22)
(30.0391 -0.242437 -1.41011e-22)
(30.0391 -0.24247 -5.63805e-23)
(30.0391 -0.24249 1.04761e-22)
(30.0391 -0.242502 -1.81626e-23)
(30.0391 -0.24249 -1.25335e-23)
(29.9945 -0.13281 2.59945e-20)
(29.9946 -0.133278 -3.59074e-20)
(29.9947 -0.133754 -1.40099e-20)
(29.9949 -0.134232 3.65055e-20)
(29.995 -0.13472 -1.31794e-20)
(29.9951 -0.135216 1.31627e-20)
(29.9952 -0.135719 -3.46226e-20)
(29.9953 -0.13623 1.78246e-20)
(29.9955 -0.136748 3.08946e-20)
(29.9956 -0.137273 -5.19946e-20)
(29.9957 -0.137806 8.55823e-20)
(29.9959 -0.138346 -8.48876e-20)
(29.996 -0.138894 5.00919e-20)
(29.9961 -0.13945 -3.77249e-20)
(29.9963 -0.140014 3.98149e-22)
(29.9964 -0.140585 5.83488e-20)
(29.9966 -0.141164 -1.12779e-19)
(29.9967 -0.141752 6.03427e-20)
(29.9969 -0.142347 5.90532e-21)
(29.997 -0.14295 -1.33832e-21)
(29.9972 -0.143562 -3.04996e-20)
(29.9974 -0.144182 -1.57001e-20)
(29.9975 -0.14481 -3.15018e-20)
(29.9977 -0.145446 9.17556e-20)
(29.9979 -0.14609 -7.02442e-21)
(29.998 -0.146743 3.48521e-20)
(29.9982 -0.147405 -5.4362e-20)
(29.9984 -0.148074 1.63309e-20)
(29.9986 -0.148753 -3.44705e-20)
(29.9988 -0.14944 4.04324e-20)
(29.999 -0.150135 4.06309e-20)
(29.9992 -0.150839 -5.60928e-20)
(29.9994 -0.151551 -2.74167e-20)
(29.9996 -0.152272 4.3494e-20)
(29.9998 -0.153002 -8.66989e-20)
(30 -0.15374 1.19481e-19)
(30.0003 -0.154487 -4.72512e-20)
(30.0005 -0.155243 4.52043e-20)
(30.0007 -0.156007 9.45768e-21)
(30.001 -0.156779 -5.52012e-20)
(30.0012 -0.15756 8.40342e-21)
(30.0014 -0.15835 1.20469e-20)
(30.0017 -0.159148 -1.31214e-21)
(30.0019 -0.159955 -6.93176e-20)
(30.0022 -0.16077 7.41435e-20)
(30.0025 -0.161593 -1.40244e-20)
(30.0027 -0.162424 7.32285e-21)
(30.003 -0.163264 1.54181e-20)
(30.0033 -0.164111 -3.64273e-20)
(30.0036 -0.164967 4.92988e-20)
(30.0039 -0.165831 -3.65107e-20)
(30.0042 -0.166702 -1.14402e-20)
(30.0045 -0.167581 3.3935e-20)
(30.0048 -0.168468 1.33591e-20)
(30.0051 -0.169362 -3.24188e-20)
(30.0054 -0.170263 -1.74351e-20)
(30.0057 -0.171171 -4.96491e-20)
(30.0061 -0.172086 3.39259e-20)
(30.0064 -0.173008 -5.55028e-20)
(30.0067 -0.173937 9.6857e-20)
(30.0071 -0.174872 7.53265e-21)
(30.0074 -0.175813 -1.18758e-19)
(30.0078 -0.17676 1.3759e-19)
(30.0082 -0.177713 -1.06976e-19)
(30.0085 -0.178671 1.49733e-20)
(30.0089 -0.179635 6.07551e-20)
(30.0093 -0.180603 -6.11329e-20)
(30.0097 -0.181576 7.37701e-20)
(30.0101 -0.182554 -1.20331e-19)
(30.0105 -0.183536 6.40468e-20)
(30.0109 -0.184521 5.38759e-20)
(30.0113 -0.18551 -5.68601e-20)
(30.0117 -0.186502 1.13629e-19)
(30.0121 -0.187497 -3.06997e-20)
(30.0125 -0.188494 2.0985e-20)
(30.0129 -0.189493 -1.20631e-19)
(30.0134 -0.190494 2.30149e-20)
(30.0138 -0.191497 -4.47223e-20)
(30.0143 -0.1925 9.27052e-20)
(30.0147 -0.193504 -1.02418e-19)
(30.0152 -0.194508 9.68985e-20)
(30.0156 -0.195511 -4.52136e-20)
(30.0161 -0.196514 8.27854e-20)
(30.0166 -0.197515 -1.22426e-19)
(30.017 -0.198515 9.19168e-20)
(30.0175 -0.199513 -4.43281e-21)
(30.018 -0.200508 -1.05602e-19)
(30.0184 -0.2015 1.55659e-19)
(30.0189 -0.202489 -8.31418e-20)
(30.0194 -0.203473 -1.71646e-20)
(30.0199 -0.204453 4.82613e-20)
(30.0204 -0.205429 -2.29478e-20)
(30.0209 -0.206398 -1.53769e-20)
(30.0214 -0.207362 5.96601e-20)
(30.0218 -0.20832 -6.68168e-20)
(30.0223 -0.20927 2.04284e-21)
(30.0228 -0.210214 -3.29251e-20)
(30.0233 -0.211149 6.6187e-20)
(30.0238 -0.212076 3.71507e-21)
(30.0243 -0.212995 -1.17391e-20)
(30.0248 -0.213904 -5.80655e-21)
(30.0253 -0.214803 -3.07832e-20)
(30.0258 -0.215692 7.88003e-21)
(30.0262 -0.216571 3.32132e-20)
(30.0267 -0.217438 -5.97942e-20)
(30.0272 -0.218294 4.72764e-20)
(30.0277 -0.219139 1.61856e-20)
(30.0281 -0.219971 -2.66574e-20)
(30.0286 -0.22079 3.57328e-20)
(30.0291 -0.221596 -1.06492e-21)
(30.0295 -0.222389 -3.0687e-20)
(30.03 -0.223168 2.06132e-20)
(30.0304 -0.223933 1.38439e-20)
(30.0308 -0.224684 -1.98576e-20)
(30.0313 -0.22542 4.54021e-21)
(30.0317 -0.226141 -9.26507e-21)
(30.0321 -0.226847 -5.61219e-21)
(30.0325 -0.227537 -2.72797e-20)
(30.0329 -0.228212 5.26244e-20)
(30.0333 -0.228871 2.51955e-21)
(30.0337 -0.229513 -2.42656e-20)
(30.0341 -0.23014 4.38234e-21)
(30.0344 -0.23075 -2.10253e-20)
(30.0348 -0.231344 2.38557e-20)
(30.0351 -0.231922 1.98232e-20)
(30.0355 -0.232483 -1.9892e-20)
(30.0358 -0.233027 1.62584e-20)
(30.0361 -0.233554 -5.73665e-21)
(30.0364 -0.234065 -1.9996e-20)
(30.0367 -0.234559 -5.51696e-21)
(30.037 -0.235037 -1.03821e-21)
(30.0373 -0.235498 3.43506e-21)
(30.0376 -0.235942 2.0033e-20)
(30.0378 -0.23637 -2.25574e-20)
(30.0381 -0.236782 4.63749e-21)
(30.0383 -0.237178 -2.62174e-21)
(30.0385 -0.237557 6.03313e-21)
(30.0387 -0.237921 5.76713e-21)
(30.0389 -0.238269 -6.9523e-21)
(30.0391 -0.238602 5.55354e-21)
(30.0393 -0.238919 -6.60444e-21)
(30.0395 -0.239222 5.43626e-21)
(30.0397 -0.239509 -3.02867e-21)
(30.0398 -0.239782 -5.30553e-22)
(30.04 -0.24004 -8.56362e-22)
(30.0401 -0.240285 5.23138e-22)
(30.0402 -0.240515 5.97143e-22)
(30.0403 -0.240732 -1.7921e-21)
(30.0404 -0.240936 3.45049e-21)
(30.0405 -0.241126 1.89232e-23)
(30.0406 -0.241304 9.65145e-22)
(30.0407 -0.24147 -2.40611e-21)
(30.0408 -0.241623 1.11241e-21)
(30.0409 -0.241763 5.76393e-22)
(30.0409 -0.241893 -2.43642e-21)
(30.041 -0.24201 2.25329e-21)
(30.041 -0.242116 -1.09126e-22)
(30.0411 -0.242211 -9.50574e-22)
(30.0411 -0.242294 -4.00319e-22)
(30.0411 -0.242367 -2.79705e-22)
(30.0412 -0.242428 3.13142e-23)
(30.0412 -0.242479 1.29888e-22)
(30.0412 -0.242518 -1.60059e-22)
(30.0412 -0.242547 -9.95881e-23)
(30.0412 -0.242563 -6.2226e-23)
(30.0412 -0.24257 -2.6928e-23)
(30.0412 -0.242555 -1.18433e-23)
(29.9884 -0.134496 -5.47504e-20)
(29.9885 -0.134953 -3.19023e-20)
(29.9887 -0.135417 7.26446e-20)
(29.9888 -0.135883 -3.7499e-20)
(29.9889 -0.13636 5.13734e-21)
(29.9891 -0.136844 8.41997e-21)
(29.9892 -0.137335 7.74921e-21)
(29.9893 -0.137833 3.22587e-20)
(29.9895 -0.138339 -8.55265e-20)
(29.9896 -0.138853 2.33581e-20)
(29.9898 -0.139373 2.90942e-20)
(29.9899 -0.139901 5.96909e-21)
(29.9901 -0.140437 -5.78548e-21)
(29.9902 -0.14098 5.10472e-20)
(29.9904 -0.141531 -5.48198e-20)
(29.9905 -0.14209 1.40771e-20)
(29.9907 -0.142657 2.29667e-20)
(29.9909 -0.143232 -4.47494e-20)
(29.9911 -0.143814 -2.77586e-20)
(29.9912 -0.144405 7.2266e-20)
(29.9914 -0.145004 -8.2736e-20)
(29.9916 -0.145611 7.47723e-20)
(29.9918 -0.146226 -1.69697e-20)
(29.992 -0.14685 -6.36086e-21)
(29.9922 -0.147481 -6.85025e-20)
(29.9924 -0.148122 3.84334e-21)
(29.9926 -0.14877 9.95279e-20)
(29.9928 -0.149427 -8.01061e-20)
(29.993 -0.150093 -1.6613e-21)
(29.9932 -0.150767 3.29123e-20)
(29.9935 -0.15145 4.08376e-20)
(29.9937 -0.152141 1.50985e-20)
(29.9939 -0.152841 -3.31093e-20)
(29.9942 -0.15355 -6.46134e-20)
(29.9944 -0.154267 5.57083e-20)
(29.9946 -0.154993 2.23009e-20)
(29.9949 -0.155727 -3.24428e-20)
(29.9952 -0.15647 -6.06504e-20)
(29.9954 -0.157222 3.96322e-20)
(29.9957 -0.157982 7.34917e-20)
(29.996 -0.158751 -2.99878e-20)
(29.9962 -0.159529 4.25793e-20)
(29.9965 -0.160315 -1.3488e-19)
(29.9968 -0.161109 3.98134e-20)
(29.9971 -0.161912 3.46476e-20)
(29.9974 -0.162724 -1.54761e-20)
(29.9977 -0.163543 -5.61266e-21)
(29.998 -0.164371 3.37535e-20)
(29.9984 -0.165208 -1.38073e-20)
(29.9987 -0.166052 -2.98054e-20)
(29.999 -0.166904 3.72201e-20)
(29.9994 -0.167764 -1.39325e-20)
(29.9997 -0.168631 5.27989e-20)
(30.0001 -0.169507 -4.81642e-20)
(30.0004 -0.17039 -4.86794e-23)
(30.0008 -0.17128 4.46558e-20)
(30.0012 -0.172177 2.40288e-20)
(30.0015 -0.173081 -4.75045e-20)
(30.0019 -0.173992 -5.57238e-20)
(30.0023 -0.17491 3.13671e-20)
(30.0027 -0.175834 4.64169e-20)
(30.0031 -0.176764 -4.45718e-20)
(30.0035 -0.177701 -4.8223e-20)
(30.004 -0.178643 5.18461e-20)
(30.0044 -0.17959 -3.98607e-20)
(30.0048 -0.180543 -1.54781e-20)
(30.0053 -0.181501 7.62161e-20)
(30.0057 -0.182463 -4.29726e-20)
(30.0062 -0.18343 -1.37985e-20)
(30.0066 -0.184401 -6.79186e-20)
(30.0071 -0.185376 1.14126e-19)
(30.0076 -0.186354 3.79389e-20)
(30.0081 -0.187335 3.39968e-20)
(30.0086 -0.188319 1.75397e-20)
(30.009 -0.189305 -1.63785e-19)
(30.0095 -0.190294 1.83684e-20)
(30.0101 -0.191284 1.49903e-20)