/*--------------------------------*- C++ -*----------------------------------*\
  =========                 |
  \\      /  F ield         | OpenFOAM: The Open Source CFD Toolbox
   \\    /   O peration     | Website:  https://openfoam.org
    \\  /    A nd           | Version:  13
     \\/     M anipulation  |
\*---------------------------------------------------------------------------*/
FoamFile
{
    format      ascii;
    class       volScalarField;
    location    "0.55";
    object      p;
}
// * * * * * * * * * * * * * * * * * * * * * * * * * * * * * * * * * * * * * //

dimensions      [0 2 -2 0 0 0 0];

internalField   nonuniform List<scalar> 
68864
(
0.37176
0.370305
0.368691
0.366891
0.365081
0.363307
0.361533
0.359738
0.357926
0.356102
0.354269
0.352423
0.350563
0.348691
0.346805
0.344905
0.342992
0.341064
0.339122
0.337164
0.335192
0.333203
0.331199
0.329178
0.327141
0.325086
0.323014
0.320923
0.318815
0.316688
0.314541
0.312375
0.310189
0.307982
0.305754
0.303505
0.301235
0.298942
0.296626
0.294288
0.291926
0.28954
0.28713
0.284695
0.282236
0.279751
0.27724
0.274703
0.272139
0.26955
0.266933
0.264288
0.261617
0.258918
0.256191
0.253436
0.250653
0.247841
0.245002
0.242135
0.239239
0.236315
0.233364
0.230385
0.227378
0.224345
0.221285
0.218198
0.215085
0.211947
0.208784
0.205598
0.202388
0.199156
0.195903
0.192628
0.189333
0.186019
0.182688
0.179342
0.175982
0.172607
0.169219
0.16582
0.162413
0.158999
0.15558
0.152158
0.148734
0.145307
0.141883
0.138462
0.13505
0.131646
0.128252
0.124869
0.1215
0.118147
0.114814
0.111505
0.108222
0.104964
0.101732
0.0985282
0.0953562
0.0922199
0.089123
0.0860677
0.083055
0.0800851
0.0771586
0.0742767
0.0714419
0.0686578
0.0659284
0.0632571
0.0606449
0.0580899
0.0555892
0.0531412
0.0507482
0.0484167
0.0461537
0.0439626
0.0418398
0.0397772
0.0377675
0.0358103
0.0339136
0.0320884
0.0303413
0.0286681
0.027056
0.0254919
0.0239722
0.0225057
0.0211078
0.0197879
0.0185411
0.0173501
0.0161962
0.0150733
0.0139919
0.0129717
0.012026
0.0111498
0.0103215
0.0095169
0.00872502
0.0079557
0.0072315
0.00657098
0.0059746
0.00542333
0.00489046
0.00435798
0.00382696
0.00331406
0.00283821
0.00240817
0.00201796
0.00165189
0.00129568
0.000944218
0.000606374
0.000295175
4.49185e-05
0.636712
0.635009
0.633017
0.630807
0.628596
0.626418
0.624223
0.621988
0.619721
0.617428
0.615109
0.612762
0.610385
0.607978
0.60554
0.603072
0.600571
0.598038
0.595471
0.592871
0.590236
0.587565
0.584858
0.582114
0.579332
0.576511
0.573651
0.570751
0.567809
0.564826
0.561799
0.558729
0.555614
0.552453
0.549246
0.545992
0.54269
0.539339
0.535938
0.532485
0.528982
0.525425
0.521816
0.518152
0.514433
0.510658
0.506826
0.502937
0.49899
0.494984
0.490918
0.486793
0.482606
0.478358
0.474048
0.469676
0.465241
0.460743
0.456181
0.451556
0.446868
0.442115
0.437298
0.432417
0.427473
0.422466
0.417396
0.412263
0.407068
0.401811
0.396494
0.391118
0.385683
0.380192
0.374644
0.36904
0.363382
0.357673
0.351915
0.34611
0.340259
0.334365
0.328429
0.322453
0.316441
0.310397
0.304325
0.298225
0.292102
0.285956
0.279793
0.273616
0.267432
0.261243
0.255051
0.24886
0.242674
0.236499
0.23034
0.224204
0.218092
0.212007
0.205951
0.19993
0.19395
0.188018
0.182139
0.176318
0.170556
0.164856
0.159222
0.153657
0.148167
0.142758
0.137434
0.132201
0.127062
0.122018
0.117068
0.112213
0.107455
0.102801
0.0982613
0.0938403
0.0895375
0.0853462
0.0812596
0.0772772
0.0734069
0.0696611
0.0660474
0.062563
0.0591951
0.0559303
0.052765
0.049709
0.0467784
0.0439826
0.0413147
0.038754
0.0362801
0.033888
0.0315921
0.0294156
0.0273706
0.0254451
0.0236083
0.0218297
0.0201011
0.0184417
0.0168836
0.0154466
0.0141205
0.0128687
0.0116515
0.0104504
0.00927808
0.0081672
0.00714613
0.00621754
0.00535494
0.00451966
0.00368334
0.00284868
0.00203409
0.00130395
0.000527203
0.95311
0.95082
0.948152
0.94525
0.942343
0.939453
0.936519
0.933522
0.93047
0.927372
0.924226
0.921028
0.917777
0.914473
0.911115
0.907701
0.904232
0.900705
0.897121
0.893477
0.889773
0.886008
0.88218
0.878289
0.874334
0.870313
0.866225
0.862069
0.857844
0.853549
0.849182
0.844743
0.84023
0.835642
0.830977
0.826236
0.821415
0.816514
0.811533
0.806469
0.801322
0.796089
0.790771
0.785366
0.779873
0.774291
0.768618
0.762854
0.756998
0.751048
0.745004
0.738865
0.732629
0.726298
0.719868
0.713341
0.706715
0.69999
0.693165
0.686242
0.679218
0.672094
0.664869
0.657546
0.650122
0.642601
0.63498
0.627262
0.619446
0.611535
0.603528
0.595429
0.587239
0.578958
0.570589
0.562133
0.553593
0.544971
0.536271
0.527497
0.518652
0.509736
0.500754
0.491708
0.482605
0.473449
0.464245
0.454998
0.445711
0.436388
0.427034
0.417656
0.408261
0.398855
0.389443
0.380029
0.370621
0.361226
0.351851
0.342502
0.333187
0.323909
0.314676
0.305494
0.296374
0.287321
0.278343
0.269447
0.260639
0.251925
0.24331
0.234801
0.226404
0.218124
0.209971
0.201953
0.194077
0.186346
0.178761
0.171319
0.164026
0.156889
0.149921
0.143132
0.136524
0.13009
0.12382
0.117714
0.111778
0.106026
0.10047
0.09511
0.0899341
0.0849271
0.0800819
0.0754055
0.0709134
0.066616
0.0625082
0.0585704
0.0547817
0.0511356
0.0476443
0.0443283
0.0411964
0.0382335
0.0354062
0.0326843
0.0300624
0.0275635
0.0252205
0.0230476
0.021024
0.0191021
0.0172365
0.0154121
0.0136523
0.0119998
0.0104842
0.0090976
0.00779644
0.00652522
0.00524932
0.0039676
0.00272752
0.00150553
0.00055108
1.21794
1.2151
1.21189
1.20848
1.20507
1.20165
1.19817
1.19462
1.19101
1.18734
1.1836
1.17981
1.17595
1.17202
1.16802
1.16396
1.15983
1.15562
1.15134
1.14699
1.14256
1.13805
1.13347
1.1288
1.12405
1.11922
1.1143
1.1093
1.1042
1.09902
1.09374
1.08837
1.0829
1.07734
1.07168
1.06591
1.06005
1.05408
1.048
1.04182
1.03552
1.02912
1.0226
1.01597
1.00922
1.00235
0.995363
0.988255
0.981025
0.97367
0.96619
0.958583
0.950848
0.942984
0.934989
0.926863
0.918605
0.910214
0.901688
0.893029
0.884234
0.875304
0.866238
0.857037
0.847701
0.838231
0.828626
0.818887
0.809014
0.79901
0.788875
0.778612
0.768223
0.757708
0.74707
0.73631
0.725432
0.714439
0.703337
0.692129
0.680817
0.669405
0.657896
0.646295
0.634608
0.622843
0.611007
0.599103
0.587135
0.57511
0.563034
0.550916
0.538764
0.526588
0.514394
0.502188
0.489977
0.47777
0.465577
0.453407
0.441272
0.429177
0.417131
0.405143
0.39322
0.381375
0.369618
0.357959
0.346407
0.33497
0.323653
0.312464
0.301411
0.290506
0.279761
0.269187
0.258792
0.248579
0.238546
0.228696
0.219036
0.20958
0.200344
0.191338
0.182564
0.174011
0.16567
0.157542
0.149638
0.141977
0.134573
0.127424
0.120515
0.113828
0.107354
0.101103
0.0950952
0.0893448
0.083846
0.0785747
0.0735041
0.0686238
0.0639472
0.0594991
0.0552926
0.0513128
0.0475216
0.0438812
0.0403801
0.0370403
0.0338981
0.0309725
0.0282436
0.0256596
0.0231669
0.0207435
0.0184102
0.0162119
0.0141817
0.012313
0.0105575
0.00885102
0.00714973
0.00545137
0.00379688
0.00221572
0.000778285
1.49023
1.48722
1.48379
1.48017
1.47653
1.47287
1.46913
1.4653
1.46139
1.4574
1.45333
1.44917
1.44493
1.4406
1.43618
1.43167
1.42707
1.42237
1.41758
1.41268
1.40769
1.40259
1.39739
1.39208
1.38667
1.38114
1.3755
1.36974
1.36387
1.35788
1.35176
1.34552
1.33916
1.33267
1.32605
1.31929
1.3124
1.30537
1.29821
1.2909
1.28345
1.27585
1.2681
1.26021
1.25216
1.24396
1.2356
1.22708
1.2184
1.20957
1.20056
1.1914
1.18206
1.17256
1.16289
1.15304
1.14303
1.13284
1.12247
1.11194
1.10122
1.09033
1.07927
1.06803
1.05661
1.04502
1.03325
1.02131
1.0092
0.996915
0.984461
0.971839
0.959053
0.946103
0.932992
0.919723
0.9063
0.892728
0.879012
0.865156
0.851164
0.83704
0.822787
0.808414
0.793928
0.779339
0.764653
0.749876
0.735011
0.720068
0.705055
0.689985
0.674869
0.659715
0.644531
0.629325
0.614106
0.598885
0.583677
0.568496
0.553351
0.538251
0.523205
0.508224
0.493321
0.47851
0.463807
0.449222
0.434765
0.420443
0.406267
0.392247
0.378398
0.364732
0.351264
0.338004
0.32496
0.312136
0.299535
0.287166
0.275038
0.263168
0.251569
0.240252
0.229215
0.218451
0.207956
0.197734
0.1878
0.178171
0.168858
0.159857
0.151151
0.142725
0.134575
0.126715
0.119164
0.111933
0.105009
0.0983639
0.091972
0.085828
0.0799512
0.0743682
0.0690876
0.0640849
0.0593127
0.0547299
0.0503297
0.0461428
0.0422113
0.0385525
0.0351362
0.0318968
0.0287718
0.0257388
0.0228268
0.0200907
0.0175676
0.0152443
0.013058
0.0109289
0.00880439
0.00668683
0.00462622
0.00267419
0.000884339
1.74898
1.7455
1.74158
1.73749
1.73339
1.72925
1.72501
1.72067
1.71624
1.71172
1.7071
1.70239
1.69758
1.69267
1.68766
1.68254
1.67732
1.67198
1.66654
1.66098
1.6553
1.6495
1.64359
1.63754
1.63138
1.62508
1.61865
1.61208
1.60538
1.59854
1.59156
1.58443
1.57715
1.56972
1.56214
1.55441
1.54651
1.53845
1.53023
1.52184
1.51328
1.50454
1.49563
1.48654
1.47727
1.46782
1.45818
1.44836
1.43834
1.42813
1.41772
1.40712
1.39631
1.3853
1.37409
1.36268
1.35106
1.33923
1.32719
1.31494
1.30248
1.2898
1.27692
1.26382
1.25051
1.23699
1.22325
1.20931
1.19515
1.18079
1.16622
1.15145
1.13648
1.1213
1.10593
1.09037
1.07462
1.05869
1.04258
1.0263
1.00985
0.993236
0.976465
0.959547
0.942489
0.925302
0.907992
0.890566
0.87303
0.855395
0.837674
0.819879
0.802022
0.784114
0.766161
0.748175
0.730168
0.712156
0.694155
0.676178
0.658238
0.640343
0.622506
0.604742
0.587067
0.5695
0.552052
0.534738
0.517568
0.500554
0.48371
0.467052
0.450595
0.434351
0.418335
0.402557
0.38703
0.371764
0.356765
0.342042
0.327606
0.313471
0.299651
0.286159
0.272998
0.260165
0.247656
0.235474
0.223633
0.212149
0.201035
0.190289
0.179897
0.169845
0.160128
0.150759
0.141754
0.133121
0.124847
0.116906
0.109276
0.101955
0.0949628
0.0883199
0.0820263
0.0760503
0.0703425
0.0648682
0.0596298
0.0546638
0.0500104
0.0456743
0.0416104
0.0377429
0.0340096
0.0303992
0.0269533
0.023733
0.0207691
0.018032
0.0154402
0.0129024
0.0103683
0.00785104
0.00541839
0.00310877
0.00105457
2.00085
1.99723
1.99314
1.98887
1.9846
1.98027
1.97583
1.97127
1.96661
1.96184
1.95696
1.95197
1.94687
1.94164
1.9363
1.93084
1.92524
1.91952
1.91367
1.90768
1.90156
1.89529
1.88889
1.88233
1.87563
1.86877
1.86176
1.85458
1.84725
1.83975
1.83208
1.82424
1.81622
1.80802
1.79964
1.79107
1.78232
1.77337
1.76423
1.75488
1.74534
1.73558
1.72562
1.71545
1.70506
1.69445
1.68362
1.67256
1.66127
1.64976
1.63801
1.62602
1.6138
1.60133
1.58863
1.57567
1.56247
1.54902
1.53532
1.52137
1.50717
1.49271
1.478
1.46303
1.44781
1.43234
1.41661
1.40064
1.38441
1.36793
1.3512
1.33424
1.31703
1.29958
1.28189
1.26398
1.24584
1.22749
1.20892
1.19014
1.17116
1.15198
1.13262
1.11308
1.09337
1.07351
1.05349
1.03333
1.01305
0.99264
0.97213
0.951528
0.930848
0.910102
0.889299
0.868455
0.847585
0.826707
0.805836
0.784988
0.764176
0.743415
0.72272
0.702109
0.6816
0.661211
0.640956
0.62085
0.600911
0.581154
0.561597
0.542255
0.523141
0.50427
0.485658
0.467323
0.449281
0.431544
0.414119
0.397011
0.380232
0.363798
0.347731
0.332047
0.31675
0.301835
0.287295
0.27313
0.259359
0.246003
0.23308
0.220589
0.208513
0.196831
0.185537
0.174643
0.164169
0.154126
0.144504
0.135276
0.12642
0.117929
0.109819
0.102106
0.0947868
0.0878294
0.0811893
0.0748382
0.0687828
0.063057
0.0576894
0.0526704
0.0479447
0.0434373
0.0390977
0.0349285
0.0309787
0.027303
0.0239143
0.0207619
0.0177519
0.0147945
0.0118533
0.00895616
0.00618338
0.00354434
0.00124756
2.25261
2.24861
2.2441
2.23944
2.23478
2.23004
2.22517
2.22017
2.21506
2.20983
2.20448
2.199
2.19339
2.18765
2.18178
2.17577
2.16961
2.16331
2.15687
2.15027
2.14352
2.13661
2.12954
2.1223
2.11489
2.10731
2.09956
2.09162
2.0835
2.07519
2.06669
2.058
2.04911
2.04001
2.0307
2.02119
2.01146
2.00151
1.99134
1.98094
1.97031
1.95944
1.94834
1.93699
1.9254
1.91355
1.90145
1.8891
1.87648
1.86361
1.85046
1.83704
1.82335
1.80939
1.79514
1.78062
1.76581
1.75071
1.73533
1.71966
1.7037
1.68744
1.6709
1.65406
1.63694
1.61952
1.60181
1.5838
1.56552
1.54694
1.52808
1.50894
1.48952
1.46983
1.44987
1.42964
1.40916
1.38842
1.36744
1.34621
1.32476
1.30308
1.28118
1.25908
1.23679
1.21431
1.19166
1.16885
1.14589
1.12279
1.09958
1.07625
1.05284
1.02934
1.00579
0.982184
0.958551
0.934906
0.911268
0.887654
0.864081
0.840567
0.81713
0.793788
0.770559
0.747463
0.724518
0.701746
0.679165
0.656795
0.634651
0.612747
0.591098
0.569724
0.548646
0.527888
0.507466
0.487389
0.467661
0.448288
0.429287
0.410683
0.392503
0.37476
0.357454
0.340572
0.324107
0.308068
0.292482
0.277379
0.262773
0.248654
0.234997
0.221777
0.208992
0.196664
0.184821
0.173475
0.162611
0.152194
0.142193
0.132602
0.123439
0.114723
0.106452
0.0985929
0.0911022
0.0839516
0.0771468
0.0707162
0.064679
0.0590168
0.053672
0.0485763
0.0436907
0.0390268
0.0346313
0.0305442
0.0267588
0.0232098
0.0198012
0.0164541
0.0131494
0.00992409
0.00686167
0.00393051
0.0014216
2.49681
2.49261
2.48785
2.48296
2.47806
2.47308
2.46795
2.46268
2.45728
2.45176
2.44609
2.44029
2.43434
2.42824
2.42199
2.41559
2.40903
2.40231
2.39542
2.38836
2.38113
2.37372
2.36613
2.35835
2.35038
2.34222
2.33386
2.32529
2.31652
2.30753
2.29833
2.28891
2.27926
2.26938
2.25927
2.24891
2.23832
2.22747
2.21637
2.20501
2.19339
2.1815
2.16934
2.15691
2.14419
2.13119
2.1179
2.10432
2.09044
2.07626
2.06177
2.04698
2.03187
2.01645
2.00071
1.98465
1.96827
1.95156
1.93452
1.91715
1.89946
1.88143
1.86306
1.84437
1.82534
1.80597
1.78628
1.76625
1.7459
1.72522
1.70421
1.68289
1.66125
1.63929
1.61703
1.59447
1.57161
1.54847
1.52504
1.50135
1.47739
1.45317
1.42872
1.40403
1.37911
1.35399
1.32868
1.30318
1.27752
1.25171
1.22575
1.19968
1.1735
1.14724
1.1209
1.09452
1.0681
1.04167
1.01525
0.988855
0.962512
0.936237
0.91005
0.883969
0.858015
0.832212
0.806583
0.781154
0.755943
0.730967
0.706243
0.681787
0.657619
0.633765
0.61025
0.587098
0.564319
0.54192
0.519908
0.498297
0.477112
0.456382
0.436129
0.416361
0.397068
0.378241
0.359881
0.34201
0.324662
0.307862
0.291614
0.275896
0.260675
0.245937
0.231693
0.217977
0.204819
0.192219
0.180148
0.168561
0.157428
0.146752
0.136562
0.12688
0.1177
0.10898
0.10067
0.0927402
0.0851986
0.0780734
0.07138
0.065095
0.0591588
0.0535071
0.0481076
0.0429745
0.0381489
0.0336576
0.029479
0.0255402
0.0217489
0.018038
0.0144023
0.0108793
0.00755196
0.00433846
0.00162025
2.74449
2.73993
2.73478
2.72952
2.72426
2.71889
2.71336
2.70768
2.70185
2.69588
2.68976
2.68349
2.67705
2.67046
2.66369
2.65676
2.64965
2.64236
2.63489
2.62723
2.61938
2.61133
2.60308
2.59462
2.58595
2.57707
2.56796
2.55863
2.54907
2.53927
2.52923
2.51895
2.50841
2.49762
2.48657
2.47524
2.46365
2.45178
2.43963
2.42719
2.41446
2.40143
2.38809
2.37445
2.36049
2.34622
2.33163
2.3167
2.30145
2.28586
2.26992
2.25365
2.23702
2.22004
2.20271
2.18502
2.16697
2.14855
2.12976
2.11061
2.09109
2.0712
2.05093
2.03029
2.00928
1.9879
1.96615
1.94403
1.92154
1.89869
1.87548
1.85191
1.82799
1.80372
1.77911
1.75416
1.72889
1.7033
1.67739
1.65119
1.6247
1.59793
1.57088
1.54358
1.51603
1.48826
1.46028
1.4321
1.40373
1.3752
1.34652
1.31771
1.28879
1.25978
1.2307
1.20156
1.1724
1.14322
1.11406
1.08494
1.05589
1.02691
0.998029
0.969273
0.940665
0.912233
0.884004
0.856001
0.828242
0.800744
0.773527
0.746612
0.720027
0.693799
0.667952
0.642504
0.617465
0.592844
0.568657
0.544925
0.521676
0.498935
0.476715
0.455016
0.433834
0.413167
0.393032
0.373455
0.354465
0.336075
0.318274
0.301035
0.284337
0.26818
0.252591
0.237604
0.223235
0.209467
0.196257
0.183562
0.171365
0.159685
0.148559
0.138003
0.127995
0.11848
0.109403
0.100741
0.0925103
0.0847435
0.0774531
0.0706071
0.0641392
0.0579843
0.0521141
0.0465465
0.0413202
0.0364534
0.0319138
0.0276225
0.023489
0.0194548
0.0155252
0.0117363
0.00817157
0.00469435
0.00179552
2.98748
2.98265
2.97718
2.97161
2.96605
2.96037
2.9545
2.94847
2.94228
2.93594
2.92944
2.92276
2.91591
2.90888
2.90166
2.89426
2.88667
2.87888
2.87089
2.86269
2.85428
2.84565
2.8368
2.82772
2.81841
2.80886
2.79906
2.78902
2.77872
2.76816
2.75734
2.74624
2.73486
2.7232
2.71125
2.699
2.68645
2.6736
2.66043
2.64694
2.63313
2.61898
2.6045
2.58967
2.5745
2.55898
2.54309
2.52684
2.51023
2.49323
2.47586
2.45811
2.43997
2.42144
2.40251
2.38318
2.36345
2.34332
2.32278
2.30183
2.28047
2.2587
2.23651
2.21391
2.1909
2.16747
2.14364
2.1194
2.09474
2.06969
2.04424
2.01839
1.99216
1.96555
1.93855
1.91119
1.88346
1.85539
1.82698
1.79823
1.76918
1.73981
1.71014
1.6802
1.65
1.61955
1.58887
1.55798
1.52689
1.49563
1.4642
1.43264
1.40097
1.36921
1.33737
1.30549
1.27357
1.24166
1.20977
1.17794
1.14618
1.11451
1.08297
1.05156
1.02033
0.989308
0.958514
0.927973
0.897703
0.867726
0.838065
0.808748
0.779805
0.75126
0.723133
0.695441
0.668199
0.641424
0.615137
0.589361
0.564119
0.539427
0.515293
0.491724
0.468723
0.446302
0.424479
0.403277
0.382711
0.36278
0.343472
0.32477
0.306668
0.28918
0.27233
0.256142
0.240614
0.225715
0.211402
0.197646
0.184446
0.171834
0.159841
0.148466
0.13767
0.127389
0.117572
0.108209
0.0993293
0.0909686
0.0831296
0.0757657
0.0687999
0.0621662
0.0558445
0.0498611
0.044257
0.0390431
0.0341741
0.0295607
0.0251116
0.0207762
0.0165734
0.0125382
0.00875748
0.00503315
0.00197316
3.23469
3.22948
3.22361
3.21765
3.2117
3.20561
3.19933
3.19285
3.18622
3.17941
3.17243
3.16525
3.15789
3.15033
3.14257
3.1346
3.12642
3.11803
3.10942
3.10058
3.0915
3.08219
3.07264
3.06283
3.05277
3.04245
3.03186
3.02099
3.00985
2.99841
2.98669
2.97467
2.96233
2.94969
2.93673
2.92344
2.90982
2.89586
2.88156
2.86691
2.85189
2.83651
2.82077
2.80464
2.78813
2.77124
2.75394
2.73625
2.71815
2.69964
2.68071
2.66136
2.64158
2.62138
2.60073
2.57965
2.55813
2.53616
2.51375
2.49089
2.46757
2.4438
2.41958
2.39491
2.36978
2.34421
2.31818
2.29171
2.26479
2.23743
2.20964
2.18143
2.15279
2.12373
2.09426
2.06439
2.03413
2.0035
1.9725
1.94115
1.90945
1.87742
1.84508
1.81244
1.77953
1.74635
1.71294
1.6793
1.64546
1.61143
1.57724
1.54291
1.50848
1.47396
1.43936
1.40473
1.37008
1.33545
1.30086
1.26633
1.2319
1.19758
1.16341
1.12941
1.09561
1.06205
1.02876
0.995738
0.963026
0.930645
0.898625
0.866994
0.835778
0.804999
0.774677
0.744832
0.715488
0.686667
0.65839
0.630672
0.603528
0.576973
0.551022
0.52569
0.500992
0.476939
0.453541
0.430807
0.408744
0.387353
0.366631
0.346576
0.32719
0.308483
0.29047
0.273157
0.256532
0.240568
0.22523
0.210503
0.196398
0.182944
0.170159
0.158024
0.146489
0.135488
0.124982
0.11498
0.105519
0.0966297
0.0882989
0.0804611
0.0730304
0.0659464
0.0592036
0.0528417
0.0469028
0.041385
0.0362242
0.0313175
0.0265745
0.0219586
0.0175068
0.0132551
0.0092896
0.0053409
0.0021409
3.48021
3.47465
3.46838
3.46205
3.45572
3.44925
3.44255
3.43565
3.42858
3.42132
3.41387
3.40621
3.39834
3.39026
3.38196
3.37344
3.36469
3.3557
3.34647
3.33699
3.32726
3.31727
3.30702
3.29649
3.28568
3.27458
3.26319
3.2515
3.23951
3.2272
3.21457
3.20161
3.18831
3.17468
3.16069
3.14635
3.13164
3.11656
3.1011
3.08526
3.06903
3.05239
3.03535
3.0179
3.00002
2.98172
2.96299
2.94381
2.92419
2.90412
2.88359
2.8626
2.84115
2.81922
2.79681
2.77393
2.75056
2.72671
2.70236
2.67753
2.6522
2.62638
2.60006
2.57326
2.54596
2.51817
2.48989
2.46112
2.43188
2.40216
2.37197
2.34131
2.3102
2.27864
2.24663
2.2142
2.18136
2.14811
2.11447
2.08045
2.04606
2.01133
1.97626
1.94089
1.90523
1.86929
1.83311
1.79669
1.76006
1.72325
1.68628
1.64918
1.61197
1.57468
1.53733
1.49996
1.46259
1.42525
1.38797
1.35077
1.3137
1.27676
1.24
1.20344
1.16713
1.13108
1.09533
1.05989
1.0248
0.990086
0.955779
0.921903
0.888483
0.85554
0.823099
0.791191
0.75984
0.729066
0.698881
0.669296
0.640325
0.611991
0.584321
0.557336
0.531047
0.505455
0.480558
0.456359
0.432869
0.410103
0.38807
0.366769
0.346197
0.326351
0.307235
0.288851
0.27119
0.254231
0.237951
0.222341
0.20741
0.193178
0.179651
0.166798
0.154563
0.142888
0.131751
0.121171
0.111189
0.101823
0.0930385
0.0847529
0.0768788
0.0693703
0.062242
0.0555451
0.0493153
0.0435297
0.0381003
0.0329137
0.0278895
0.0230133
0.0183432
0.0139081
0.00978728
0.00563201
0.0023028
3.73008
3.72411
3.71738
3.71061
3.70385
3.69692
3.68975
3.68236
3.67479
3.66701
3.65901
3.65079
3.64235
3.63368
3.62477
3.61561
3.60621
3.59655
3.58662
3.57643
3.56596
3.55521
3.54416
3.53282
3.52117
3.50921
3.49693
3.48432
3.47138
3.45809
3.44446
3.43046
3.4161
3.40137
3.38625
3.37075
3.35485
3.33854
3.32182
3.30467
3.2871
3.2691
3.25065
3.23174
3.21238
3.19256
3.17226
3.15148
3.13022
3.10846
3.08621
3.06345
3.04018
3.0164
2.99211
2.96729
2.94195
2.91607
2.88967
2.86273
2.83526
2.80726
2.77873
2.74966
2.72005
2.68992
2.65926
2.62808
2.59639
2.56418
2.53147
2.49826
2.46456
2.43039
2.39574
2.36065
2.32511
2.28914
2.25277
2.21599
2.17883
2.14131
2.10344
2.06526
2.02678
1.98802
1.94901
1.90976
1.87031
1.83068
1.79089
1.75099
1.71099
1.67092
1.63081
1.59069
1.5506
1.51056
1.4706
1.43076
1.39107
1.35155
1.31225
1.27319
1.2344
1.19592
1.15777
1.11998
1.08258
1.04561
1.0091
0.973055
0.93751
0.902492
0.868033
0.834165
0.800909
0.768275
0.736271
0.704907
0.674209
0.64421
0.614943
0.586423
0.558648
0.531604
0.505287
0.479709
0.454897
0.430874
0.407648
0.385209
0.363538
0.342625
0.322475
0.303096
0.284486
0.266629
0.249502
0.233093
0.217408
0.20246
0.188243
0.174723
0.161844
0.149559
0.137858
0.126768
0.116324
0.106526
0.0973186
0.0886101
0.0803214
0.0724277
0.0649631
0.0579818
0.0515027
0.0454744
0.0397887
0.0343319
0.0290449
0.0239401
0.0190904
0.0145076
0.0102543
0.00590131
0.00245173
3.98059
3.9742
3.96699
3.95977
3.95257
3.94518
3.93751
3.92962
3.92152
3.9132
3.90465
3.89586
3.88682
3.87753
3.86799
3.85818
3.8481
3.83774
3.82709
3.81615
3.80491
3.79336
3.7815
3.76931
3.75679
3.74393
3.73072
3.71715
3.70322
3.68892
3.67423
3.65916
3.64369
3.62781
3.61151
3.59479
3.57764
3.56004
3.542
3.5235
3.50453
3.48508
3.46516
3.44474
3.42382
3.4024
3.38046
3.358
3.33502
3.3115
3.28744
3.26283
3.23767
3.21196
3.18568
3.15884
3.13143
3.10345
3.0749
3.04577
3.01606
2.98578
2.95493
2.9235
2.8915
2.85893
2.8258
2.79211
2.75787
2.72309
2.68776
2.65191
2.61554
2.57866
2.5413
2.50345
2.46515
2.42639
2.3872
2.34759
2.30759
2.26723
2.22651
2.18546
2.14411
2.10249
2.0606
2.01849
1.97619
1.93371
1.89109
1.84837
1.80556
1.76271
1.71984
1.67699
1.63419
1.59147
1.54887
1.50641
1.46414
1.42209
1.38029
1.33877
1.29756
1.2567
1.21622
1.17616
1.13654
1.09739
1.05874
1.02061
0.983027
0.946032
0.909656
0.873926
0.838855
0.804446
0.770709
0.737666
0.705353
0.673808
0.643057
0.6131
0.583919
0.5555
0.527851
0.500999
0.47498
0.449815
0.425498
0.402001
0.3793
0.357389
0.336282
0.315996
0.29653
0.277864
0.259969
0.242831
0.226451
0.21084
0.195987
0.181856
0.168394
0.155562
0.14336
0.131819
0.120959
0.110763
0.101157
0.0920523
0.0833853
0.0751542
0.0674051
0.0601834
0.0534819
0.0472226
0.0412867
0.0355736
0.0300525
0.024759
0.0197691
0.0150632
0.0106875
0.00613831
0.00258332
4.23557
4.22871
4.22098
4.21325
4.20556
4.19764
4.18943
4.18098
4.1723
4.16338
4.15421
4.14478
4.13509
4.12512
4.11488
4.10434
4.09351
4.08238
4.07094
4.05918
4.04709
4.03467
4.02191
4.00879
3.99531
3.98146
3.96724
3.95262
3.93761
3.9222
3.90637
3.89012
3.87343
3.8563
3.83872
3.82068
3.80217
3.78318
3.7637
3.74372
3.72324
3.70224
3.68071
3.65866
3.63606
3.61291
3.58921
3.56494
3.5401
3.51469
3.48868
3.46209
3.4349
3.40712
3.37872
3.34972
3.3201
3.28987
3.25902
3.22756
3.19548
3.16278
3.12947
3.09554
3.061
3.02586
2.99012
2.95378
2.91686
2.87936
2.8413
2.80267
2.76351
2.72382
2.68361
2.6429
2.60171
2.56005
2.51794
2.47542
2.43249
2.38919
2.34554
2.30155
2.25726
2.2127
2.16789
2.12287
2.07767
2.03231
1.98682
1.94125
1.89563
1.84998
1.80435
1.75877
1.71327
1.66789
1.62266
1.57762
1.53281
1.48826
1.44401
1.40008
1.35651
1.31334
1.27061
1.22834
1.18657
1.14532
1.10462
1.06449
1.02497
0.986098
0.947905
0.910406
0.873607
0.837515
0.80215
0.767545
0.73374
0.700765
0.668629
0.637319
0.606816
0.577118
0.548248
0.520244
0.493136
0.466931
0.441605
0.417123
0.393467
0.370644
0.348676
0.32758
0.30735
0.287955
0.269362
0.251556
0.234543
0.218329
0.202903
0.188222
0.174239
0.160924
0.148283
0.136339
0.125103
0.114536
0.104561
0.0950945
0.0860956
0.0775794
0.0695927
0.062162
0.0552528
0.0487685
0.0425933
0.0366488
0.0309319
0.0254905
0.0203902
0.0155747
0.0110775
0.00633192
0.00269652
4.49286
4.4855
4.47722
4.46896
4.46074
4.45227
4.44349
4.43444
4.42515
4.4156
4.40578
4.39567
4.38528
4.3746
4.36361
4.35231
4.34069
4.32874
4.31646
4.30383
4.29084
4.2775
4.26378
4.24968
4.23518
4.22029
4.20499
4.18926
4.17311
4.15651
4.13947
4.12197
4.10399
4.08554
4.0666
4.04716
4.0272
4.00673
3.98573
3.96419
3.9421
3.91945
3.89623
3.87244
3.84806
3.82309
3.79752
3.77134
3.74454
3.71711
3.68906
3.66037
3.63104
3.60106
3.57043
3.53914
3.5072
3.4746
3.44134
3.40742
3.37284
3.3376
3.30171
3.26516
3.22796
3.19013
3.15166
3.11256
3.07284
3.03251
2.99159
2.95009
2.90803
2.86541
2.82226
2.77859
2.73441
2.68977
2.64467
2.59915
2.55322
2.50691
2.46025
2.41326
2.36598
2.31844
2.27067
2.2227
2.17456
2.12629
2.07793
2.0295
1.98106
1.93263
1.88425
1.83594
1.78776
1.73974
1.69192
1.64434
1.59704
1.55005
1.5034
1.45713
1.41127
1.36586
1.32095
1.27656
1.23272
1.18945
1.14679
1.10476
1.06341
1.02276
0.982848
0.943668
0.905237
0.867569
0.830695
0.79465
0.759467
0.72516
0.691725
0.659147
0.627419
0.596555
0.566585
0.537545
0.509449
0.482286
0.456024
0.430635
0.406111
0.38247
0.359738
0.337924
0.317007
0.296951
0.277723
0.259313
0.241729
0.224976
0.209037
0.193869
0.179426
0.165687
0.152657
0.140354
0.128773
0.117865
0.107553
0.097769
0.088488
0.0797335
0.0715434
0.0639222
0.0568138
0.0501145
0.0437209
0.0375789
0.0317052
0.0261489
0.0209567
0.016034
0.0114149
0.00647765
0.00279442
4.7548
4.7469
4.73801
4.72917
4.72037
4.71131
4.7019
4.6922
4.68224
4.67201
4.66147
4.65064
4.63949
4.62802
4.61622
4.60409
4.59161
4.57877
4.56557
4.552
4.53804
4.52369
4.50893
4.49376
4.47817
4.46214
4.44567
4.42874
4.41135
4.39348
4.37512
4.35627
4.3369
4.31702
4.2966
4.27565
4.25414
4.23207
4.20943
4.1862
4.16238
4.13796
4.11292
4.08726
4.06097
4.03404
4.00646
3.97822
3.94932
3.91974
3.88949
3.85856
3.82693
3.79461
3.7616
3.72788
3.69346
3.65834
3.62251
3.58598
3.54875
3.51081
3.47218
3.43287
3.39286
3.35219
3.31084
3.26883
3.22617
3.18288
3.13897
3.09446
3.04937
3.0037
2.95748
2.91072
2.86346
2.81572
2.76753
2.71891
2.66989
2.62049
2.57074
2.52068
2.47035
2.41977
2.36898
2.31802
2.26692
2.21571
2.16445
2.11316
2.06188
2.01066
1.95953
1.90853
1.85769
1.80706
1.75669
1.70662
1.65687
1.60748
1.55849
1.50993
1.46186
1.4143
1.36729
1.32085
1.27502
1.22983
1.1853
1.14148
1.0984
1.05607
1.01452
0.973762
0.933806
0.894681
0.85642
0.819049
0.782586
0.747035
0.712389
0.678644
0.645806
0.613896
0.582943
0.552965
0.523964
0.495919
0.468802
0.442594
0.417299
0.39294
0.369534
0.347078
0.325544
0.304892
0.285094
0.266145
0.248055
0.230826
0.214435
0.198839
0.183995
0.169883
0.156508
0.143882
0.131988
0.120774
0.110167
0.100111
0.0905927
0.0816356
0.0732648
0.0654661
0.05817
0.0512741
0.0446908
0.0383859
0.0323882
0.0267389
0.0214637
0.0164355
0.011697
0.00657809
0.00288066
5.0202
5.01172
5.00218
4.99273
4.98332
4.97362
4.96354
4.95315
4.94248
4.93151
4.92022
4.9086
4.89664
4.88434
4.87168
4.85866
4.84526
4.83148
4.81731
4.80273
4.78773
4.77231
4.75645
4.74014
4.72337
4.70614
4.68842
4.67021
4.65149
4.63226
4.6125
4.5922
4.57135
4.54994
4.52796
4.50539
4.48222
4.45845
4.43406
4.40903
4.38337
4.35705
4.33008
4.30243
4.2741
4.24509
4.21537
4.18495
4.15381
4.12196
4.08937
4.05605
4.022
3.9872
3.95166
3.91537
3.87833
3.84054
3.802
3.76272
3.72269
3.68192
3.64041
3.59818
3.55523
3.51157
3.46721
3.42216
3.37643
3.33005
3.28303
3.23538
3.18713
3.1383
3.0889
3.03896
2.98851
2.93759
2.88621
2.83441
2.78221
2.72965
2.67675
2.62357
2.57013
2.51648
2.46264
2.40865
2.35456
2.30041
2.24623
2.19208
2.13798
2.08398
2.03012
1.97644
1.92298
1.8698
1.81692
1.7644
1.71226
1.66054
1.60928
1.55852
1.5083
1.45867
1.40964
1.36125
1.31353
1.26651
1.22023
1.17472
1.13
1.08609
1.04301
1.00077
0.959415
0.918956
0.879419
0.84082
0.803168
0.766463
0.73071
0.695914
0.662086
0.629244
0.597404
0.566574
0.536746
0.507901
0.480018
0.453088
0.427119
0.402128
0.378126
0.355099
0.333014
0.311831
0.291528
0.272105
0.253572
0.235929
0.219147
0.203179
0.187984
0.173543
0.159862
0.146948
0.134777
0.123297
0.112438
0.102152
0.0924311
0.0832966
0.0747627
0.0668016
0.0593361
0.052268
0.0455238
0.0390855
0.0329875
0.0272609
0.02191
0.0167785
0.0119271
0.00663828
0.00295823
5.29046
5.28136
5.27112
5.261
5.25093
5.24054
5.22974
5.21861
5.20717
5.19541
5.18331
5.17084
5.15801
5.14481
5.13122
5.11724
5.10286
5.08806
5.07283
5.05716
5.04105
5.02447
5.00742
4.98988
4.97185
4.95331
4.93425
4.91466
4.89452
4.87382
4.85256
4.8307
4.80826
4.78521
4.76153
4.73723
4.71228
4.68668
4.66041
4.63345
4.60581
4.57747
4.54841
4.51864
4.48813
4.45687
4.42487
4.39211
4.35859
4.3243
4.28922
4.25336
4.21671
4.17927
4.14104
4.10201
4.06219
4.02157
3.98016
3.93795
3.89496
3.8512
3.80666
3.76136
3.7153
3.6685
3.62097
3.57272
3.52378
3.47417
3.42389
3.37297
3.32144
3.26931
3.21661
3.16338
3.10964
3.05543
3.00077
2.94569
2.89024
2.83444
2.77833
2.72196
2.66537
2.60858
2.55165
2.49462
2.43752
2.3804
2.32331
2.26629
2.20938
2.15262
2.09605
2.03972
1.98369
1.92799
1.87267
1.81775
1.76328
1.70929
1.65584
1.60296
1.55069
1.49906
1.44811
1.39786
1.34834
1.29961
1.25167
1.20457
1.15831
1.11291
1.06841
1.02482
0.982179
0.940496
0.899783
0.860047
0.821298
0.783546
0.746801
0.711071
0.676364
0.642686
0.610045
0.578442
0.547872
0.518318
0.489765
0.462206
0.435648
0.410105
0.385578
0.362048
0.339477
0.317827
0.297083
0.277248
0.258335
0.240338
0.223221
0.206931
0.191428
0.176697
0.162746
0.149582
0.137176
0.125471
0.114398
0.103914
0.0940165
0.084726
0.0760488
0.0679458
0.0603331
0.0531161
0.046235
0.0396857
0.0335072
0.0277166
0.0222971
0.0170662
0.0121083
0.00666043
0.0030297
5.56495
5.55518
5.54421
5.53338
5.52261
5.51148
5.49991
5.48799
5.47573
5.46313
5.45015
5.43679
5.42303
5.40887
5.39429
5.37929
5.36385
5.34796
5.33161
5.31478
5.29747
5.27966
5.26134
5.2425
5.22311
5.20318
5.18269
5.16162
5.13996
5.1177
5.09482
5.07131
5.04716
5.02235
4.99688
4.97072
4.94387
4.91631
4.88804
4.85903
4.82927
4.79877
4.7675
4.73545
4.70261
4.66898
4.63455
4.5993
4.56324
4.52635
4.48863
4.45007
4.41067
4.37043
4.32935
4.28742
4.24465
4.20104
4.15659
4.11131
4.0652
4.01828
3.97055
3.92202
3.8727
3.82261
3.77176
3.72019
3.66789
3.6149
3.56124
3.50692
3.45198
3.39644
3.34034
3.28371
3.22658
3.16898
3.11095
3.05252
2.99374
2.93464
2.87527
2.81567
2.75587
2.69593
2.63588
2.57578
2.51567
2.45559
2.39559
2.33572
2.27601
2.21651
2.15728
2.09836