/*--------------------------------*- C++ -*----------------------------------*\
  =========                 |
  \\      /  F ield         | OpenFOAM: The Open Source CFD Toolbox
   \\    /   O peration     | Website:  https://openfoam.org
    \\  /    A nd           | Version:  13
     \\/     M anipulation  |
\*---------------------------------------------------------------------------*/
FoamFile
{
    format      ascii;
    class       surfaceScalarField;
    location    "0.55";
    object      phi;
}
// * * * * * * * * * * * * * * * * * * * * * * * * * * * * * * * * * * * * * //

dimensions      [0 3 -1 0 0 0 0];

internalField   nonuniform List<scalar> 
137229
(
14.3657
-0.000429603
-14.3685
14.3628
-0.000438946
14.3599
-0.000448628
14.357
-0.000458527
14.354
-0.00046871
14.3509
-0.000479214
14.3477
-0.00048998
14.3445
-0.000501101
14.3413
-0.000512521
14.3379
-0.000524276
14.3345
-0.000536343
14.3311
-0.00054882
14.3276
-0.000561594
14.324
-0.000574764
14.3203
-0.00058834
14.3166
-0.000602242
14.3128
-0.000616603
14.3089
-0.000631373
14.3049
-0.000646538
14.3009
-0.000662172
14.2967
-0.000678229
14.2925
-0.000694756
14.2883
-0.00071177
14.2839
-0.00072926
14.2794
-0.000747244
14.2749
-0.000765745
14.2703
-0.000784782
14.2655
-0.000804348
14.2607
-0.000824467
14.2558
-0.000845164
14.2508
-0.000866403
14.2457
-0.000888303
14.2405
-0.000910771
14.2351
-0.000933835
14.2297
-0.000957616
14.2242
-0.000981964
14.2185
-0.00100703
14.2128
-0.0010328
14.2069
-0.0010592
14.2009
-0.00108637
14.1948
-0.00111422
14.1886
-0.00114285
14.1822
-0.00117224
14.1758
-0.00120234
14.1692
-0.00123331
14.1624
-0.00126502
14.1555
-0.00129756
14.1485
-0.00133093
14.1414
-0.00136516
14.1341
-0.00140019
14.1266
-0.00143613
14.119
-0.00147292
14.1113
-0.00151063
14.1033
-0.00154922
14.0953
-0.00158874
14.087
-0.00162918
14.0786
-0.00167053
14.0701
-0.00171285
14.0613
-0.00175607
14.0524
-0.00180026
14.0433
-0.00184544
14.034
-0.00189153
14.0246
-0.00193866
14.0149
-0.00198668
14.005
-0.00203569
13.995
-0.00208568
13.9847
-0.00213661
13.9742
-0.00218852
13.9635
-0.0022414
13.9526
-0.00229521
13.9415
-0.00234993
13.9301
-0.00240551
13.9186
-0.00246201
13.9067
-0.00251947
13.8947
-0.0025778
13.8823
-0.00263699
13.8698
-0.00269701
13.8569
-0.00275769
13.8439
-0.00281912
13.8305
-0.0028813
13.8169
-0.00294421
13.803
-0.00300784
13.7888
-0.0030721
13.7743
-0.00313683
13.7595
-0.00320198
13.7444
-0.00326747
13.729
-0.00333341
13.7133
-0.00339973
13.6972
-0.00346646
13.6809
-0.00353328
13.6641
-0.00360013
13.6471
-0.00366688
13.6297
-0.00373345
13.6119
-0.0038
13.5938
-0.00386637
13.5752
-0.00393245
13.5563
-0.00399798
13.5371
-0.00406277
13.5174
-0.00412664
13.4973
-0.00418967
13.4767
-0.00425187
13.4558
-0.00431315
13.4344
-0.00437326
13.4126
-0.00443195
13.3903
-0.00448883
13.3676
-0.00454385
13.3443
-0.00459684
13.3206
-0.00464783
13.2964
-0.00469676
13.2717
-0.00474336
13.2465
-0.00478749
13.2207
-0.00482884
13.1944
-0.00486707
13.1676
-0.00490187
13.1402
-0.00493289
13.1122
-0.00496009
13.0836
-0.00498341
13.0544
-0.00500306
13.0246
-0.005019
12.9942
-0.00503068
12.9631
-0.00503722
12.9314
-0.00503778
12.899
-0.00503197
12.8659
-0.0050202
12.8321
-0.00500327
12.7976
-0.00498165
12.7624
-0.00495473
12.7264
-0.00492094
12.6897
-0.00487858
12.6522
-0.00482682
12.6138
-0.00476645
12.5747
-0.00469906
12.5347
-0.00462587
12.4939
-0.00454639
12.4522
-0.00445807
12.4096
-0.00435811
12.366
-0.00424518
12.3216
-0.00412062
12.2762
-0.00398728
12.2298
-0.00384736
12.1824
-0.00370003
12.134
-0.00354137
12.0846
-0.00336678
12.0341
-0.00317437
11.9825
-0.00296664
11.9298
-0.00274883
11.8759
-0.00252481
11.8209
-0.00229347
11.7647
-0.00204854
11.7073
-0.0017822
11.6486
-0.00149068
11.5886
-0.00117718
11.5274
-0.000850084
11.4648
-0.000517053
11.4008
-0.000179116
11.3355
0.000171032
11.2687
0.000544979
11.2004
0.000951767
11.1307
0.00139163
11.0594
0.00185634
10.9866
0.00233362
10.9122
0.00281551
10.8361
0.00330355
10.7584
0.00380899
10.679
0.00434641
10.5978
0.00493049
0.00556376
13.6793
0.00212872
-13.6819
13.6767
0.00216967
13.674
0.00221141
13.6713
0.00225395
13.6686
0.00229728
13.6657
0.00234143
13.6629
0.00238639
13.6599
0.0024322
13.6569
0.00247888
13.6539
0.0025264
13.6508
0.00257483
13.6476
0.00262417
13.6444
0.00267444
13.6411
0.0027256
13.6377
0.00277774
13.6343
0.00283087
13.6308
0.00288498
13.6272
0.00294009
13.6236
0.00299624
13.6198
0.00305346
13.6161
0.00311171
13.6122
0.00317106
13.6082
0.00323153
13.6042
0.00329309
13.6001
0.00335588
13.5959
0.00341975
13.5917
0.00348491
13.5873
0.00355124
13.5829
0.00361881
13.5783
0.00368766
13.5737
0.00375782
13.569
0.00382929
13.5642
0.00390211
13.5593
0.00397633
13.5543
0.00405192
13.5491
0.00412894
13.5439
0.00420748
13.5386
0.00428747
13.5332
0.004369
13.5276
0.00445211
13.522
0.00453677
13.5162
0.0046231
13.5103
0.0047111
13.5043
0.00480081
13.4982
0.00489225
13.492
0.00498549
13.4856
0.00508055
13.4791
0.00517747
13.4724
0.00527633
13.4657
0.00537715
13.4587
0.00547998
13.4517
0.00558486
13.4445
0.00569188
13.4371
0.00580103
13.4296
0.00591245
13.422
0.00602613
13.4142
0.00614215
13.4062
0.00626062
13.3981
0.00638151
13.3897
0.00650494
13.3813
0.00663102
13.3726
0.00675975
13.3638
0.00689126
13.3548
0.00702561
13.3456
0.00716291
13.3362
0.00730321
13.3266
0.00744658
13.3168
0.00759315
13.3068
0.00774302
13.2967
0.00789626
13.2862
0.00805303
13.2756
0.00821347
13.2648
0.00837759
13.2537
0.00854553
13.2424
0.00871739
13.2309
0.00889334
13.2191
0.00907352
13.2071
0.00925816
13.1948
0.00944737
13.1823
0.00964121
13.1695
0.00983984
13.1565
0.0100433
13.1432
0.010252
13.1296
0.010466
13.1157
0.0106857
13.1015
0.0109111
13.087
0.0111424
13.0722
0.0113797
13.0572
0.0116232
13.0417
0.0118733
13.026
0.0121302
13.01
0.0123942
12.9936
0.0126656
12.9768
0.0129443
12.9597
0.0132308
12.9423
0.0135252
12.9244
0.0138279
12.9062
0.0141395
12.8876
0.0144601
12.8687
0.0147898
12.8493
0.0151291
12.8295
0.015478
12.8093
0.0158371
12.7886
0.0162068
12.7676
0.0165876
12.746
0.0169799
12.7241
0.0173839
12.7016
0.0178001
12.6787
0.0182285
12.6553
0.0186698
12.6314
0.0191244
12.6069
0.0195927
12.582
0.0200752
12.5565
0.0205727
12.5305
0.0210857
12.5039
0.0216147
12.4768
0.0221599
12.4491
0.0227213
12.4207
0.0232994
12.3918
0.0238948
12.3623
0.0245088
12.3321
0.0251425
12.3013
0.0257968
12.2698
0.0264716
12.2376
0.0271665
12.2047
0.0278812
12.1712
0.0286167
12.1369
0.0293748
12.1018
0.0301575
12.066
0.0309661
12.0295
0.0318005
11.9921
0.0326595
11.9539
0.0335423
11.915
0.0344498
11.8751
0.0353845
11.8344
0.0363497
11.7928
0.0373471
11.7503
0.0383763
11.7069
0.0394348
11.6625
0.0405213
11.6172
0.0416368
11.5709
0.0427856
11.5235
0.0439724
11.4751
0.0451997
11.4257
0.0464657
11.3752
0.047766
11.3236
0.0490976
11.2708
0.0504621
11.2169
0.0518662
11.1618
0.0533179
11.1055
0.0548215
11.0479
0.0563743
10.9891
0.0579689
10.929
0.0595987
10.8676
0.0612636
10.8048
0.0629718
10.7406
0.0647353
10.675
0.0665633
10.6079
0.0684564
10.5393
0.0704068
10.4693
0.0724034
10.3976
0.0744396
10.3244
0.0765188
10.2496
0.0786536
10.1731
0.0808592
10.0949
0.0831514
0.0855273
13.0211
0.00446471
-13.0234
13.0187
0.00455235
13.0163
0.00464173
13.0138
0.0047329
13.0113
0.0048259
13.0087
0.00492072
13.006
0.00501744
13.0034
0.00511614
13.0006
0.00521675
12.9978
0.00531939
12.995
0.00542408
12.9921
0.00553087
12.9891
0.00563976
12.9861
0.00575088
12.983
0.00586417
12.9799
0.00597974
12.9766
0.00609766
12.9734
0.00621789
12.97
0.00634054
12.9666
0.00646568
12.9631
0.00659327
12.9596
0.0067235
12.9559
0.00685626
12.9522
0.00699174
12.9485
0.00712992
12.9446
0.00727091
12.9407
0.00741467
12.9367
0.0075614
12.9326
0.00771104
12.9284
0.00786371
12.9242
0.00801945
12.9198
0.00817839
12.9154
0.00834051
12.9108
0.00850591
12.9062
0.00867467
12.9015
0.00884683
12.8967
0.00902256
12.8918
0.00920179
12.8867
0.00938472
12.8816
0.00957139
12.8764
0.00976183
12.8711
0.00995622
12.8656
0.0101546
12.8601
0.010357
12.8544
0.0105636
12.8486
0.0107744
12.8427
0.0109897
12.8367
0.0112093
12.8305
0.0114336
12.8242
0.0116625
12.8178
0.0118961
12.8113
0.0121347
12.8046
0.0123783
12.7978
0.0126269
12.7908
0.0128808
12.7837
0.0131401
12.7764
0.0134048
12.769
0.0136752
12.7614
0.0139513
12.7537
0.0142333
12.7458
0.0145214
12.7377
0.0148156
12.7295
0.0151163
12.7211
0.0154234
12.7125
0.0157372
12.7038
0.0160578
12.6949
0.0163855
12.6857
0.0167203
12.6764
0.0170625
12.6669
0.0174123
12.6572
0.0177699
12.6473
0.0181355
12.6371
0.0185093
12.6268
0.0188915
12.6162
0.0192822
12.6054
0.0196819
12.5944
0.0200906
12.5832
0.0205088
12.5717
0.0209367
12.5599
0.0213744
12.548
0.0218222
12.5357
0.0222804
12.5232
0.0227493
12.5105
0.0232292
12.4974
0.0237207
12.4841
0.0242238
12.4705
0.0247391
12.4566
0.0252664
12.4424
0.0258064
12.428
0.0263594
12.4132
0.0269259
12.398
0.0275064
12.3826
0.0281012
12.3668
0.0287106
12.3507
0.0293349
12.3343
0.0299746
12.3175
0.0306303
12.3003
0.0313025
12.2828
0.0319917
12.2649
0.0326984
12.2466
0.0334228
12.2279
0.0341656
12.2088
0.0349272
12.1893
0.0357083
12.1694
0.0365097
12.149
0.0373318
12.1282
0.0381752
12.107
0.0390406
12.0853
0.0399283
12.0631
0.0408391
12.0405
0.0417736
12.0173
0.0427324
11.9937
0.0437166
11.9696
0.0447268
11.9449
0.0457641
11.9197
0.0468292
11.8939
0.0479224
11.8676
0.0490441
11.8407
0.0501949
11.8132
0.0513759
11.7851
0.0525887
11.7564
0.0538348
11.7271
0.0551153
11.6971
0.0564304
11.6665
0.05778
11.6353
0.0591641
11.6033
0.060584
11.5706
0.0620419
11.5372
0.0635403
11.5031
0.065081
11.4683
0.0666641
11.4326
0.0682887
11.3962
0.0699545
11.359
0.0716627
11.321
0.0734162
11.2821
0.0752189
11.2424
0.0770728
11.2018
0.0789779
11.1603
0.0809325
11.1179
0.0829357
11.0745
0.0849889
11.0302
0.0870968
10.9849
0.0892645
10.9386
0.0914947
10.8913
0.0937864
10.8429
0.096136
10.7935
0.0985415
10.7429
0.101005
10.6913
0.103534
10.6384
0.106136
10.5845
0.108815
10.5293
0.11157
10.4728
0.114394
10.4151
0.117282
10.3562
0.120236
10.2959
0.123264
10.2342
0.126377
10.1712
0.129586
10.1068
0.13289
10.0409
0.136283
9.97356
0.139755
9.9047
0.143301
9.83429
0.146928
9.76229
0.150648
9.68868
0.154477
9.6134
0.158428
0.162501
12.3967
0.00660091
-12.3989
12.3945
0.00673195
12.3923
0.00686561
12.3901
0.00700206
12.3877
0.00714127
12.3854
0.00728331
12.383
0.00742825
12.3805
0.00757615
12.378
0.00772706
12.3754
0.00788109
12.3728
0.00803821
12.3701
0.0081986
12.3674
0.00836223
12.3646
0.00852923
12.3618
0.00869962
12.3589
0.00887355
12.356
0.009051
12.353
0.00923212
12.3499
0.00941691
12.3467
0.00960553
12.3435
0.00979805
12.3403
0.00999445
12.3369
0.010195
12.3335
0.0103995
12.33
0.0106084
12.3265
0.0108215
12.3229
0.011039
12.3192
0.011261
12.3154
0.0114876
12.3115
0.0117189
12.3076
0.0119549
12.3036
0.0121959
12.2995
0.0124418
12.2953
0.0126928
12.291
0.0129491
12.2866
0.0132106
12.2822
0.0134776
12.2776
0.0137502
12.273
0.0140284
12.2683
0.0143125
12.2634
0.0146025
12.2585
0.0148985
12.2534
0.0152007
12.2483
0.0155094
12.243
0.0158244
12.2376
0.0161461
12.2322
0.0164746
12.2266
0.01681
12.2208
0.0171524
12.215
0.0175022
12.209
0.0178593
12.203
0.018224
12.1967
0.0185965
12.1904
0.0189769
12.1839
0.0193655
12.1773
0.0197624
12.1705
0.0201677
12.1636
0.0205818
12.1566
0.0210048
12.1493
0.0214369
12.142
0.0218783
12.1345
0.0223293
12.1268
0.0227901
12.119
0.023261
12.111
0.0237422
12.1028
0.0242338
12.0944
0.0247363
12.0859
0.0252498
12.0772
0.0257746
12.0683
0.026311
12.0592
0.0268594
12.0499
0.02742
12.0404
0.027993
12.0307
0.0285789
12.0209
0.0291779
12.0107
0.0297903
12.0004
0.0304166
11.9899
0.0310573
11.9791
0.0317124
11.9681
0.0323826
11.9568
0.0330679
11.9454
0.0337688
11.9336
0.0344859
11.9216
0.0352196
11.9094
0.0359705
11.8969
0.0367389
11.8841
0.0375251
11.871
0.0383297
11.8577
0.0391529
11.844
0.0399955
11.8301
0.0408582
11.8159
0.0417414
11.8013
0.0426458
11.7865
0.0435716
11.7713
0.0445195
11.7558
0.0454899
11.7399
0.0464837
11.7237
0.0475017
11.7072
0.0485445
11.6902
0.0496127
11.673
0.0507068
11.6553
0.0518274
11.6372
0.0529754
11.6188
0.0541515
11.6
0.0553568
11.5807
0.056592
11.561
0.0578579
11.5409
0.0591552
11.5203
0.0604845
11.4993
0.0618469
11.4779
0.063243
11.4559
0.064674
11.4335
0.0661411
11.4106
0.0676452
11.3872
0.0691877
11.3632
0.070769
11.3387
0.0723902
11.3137
0.0740518
11.2882
0.0757547
11.2621
0.0775005
11.2354
0.0792911
11.2081
0.0811281
11.1802
0.0830128
11.1516
0.0849456
11.1225
0.0869269
11.0927
0.088957
11.0623
0.0910378
11.0311
0.0931719
10.9993
0.0953621
10.9668
0.0976102
10.9335
0.0999167
10.8995
0.102281
10.8648
0.104703
10.8293
0.107185
10.7929
0.109731
10.7558
0.112344
10.7179
0.115027
10.6791
0.117779
10.6394
0.120601
10.5988
0.12349
10.5574
0.126451
10.515
0.129487
10.4716
0.132605
10.4273
0.135807
10.382
0.139092
10.3357
0.142458
10.2883
0.145903
10.2399
0.149431
10.1904
0.153049
10.1398
0.156766
10.088
0.160586
10.0351
0.164506
9.98094
0.168523
9.92559
0.17263
9.86899
0.176833
9.81112
0.181139
9.75193
0.185563
9.69141
0.190111
9.62951
0.194785
9.56622
0.199578
9.50149
0.204482
9.4353
0.209494
9.3676
0.214622
9.29837
0.219881
9.22756
0.225285
9.15514
0.23085
0.236568
11.8011
0.00855805
-11.803
11.7991
0.00872933
11.7971
0.00890419
11.795
0.00908264
11.7928
0.00926481
11.7907
0.00945071
11.7885
0.00964047
11.7862
0.00983419
11.7839
0.0100319
11.7816
0.0102337
11.7792
0.0104397
11.7767
0.0106499
11.7742
0.0108645
11.7716
0.0110836
11.769
0.0113072
11.7664
0.0115355
11.7637
0.0117686
11.7609
0.0120064
11.7581
0.0122493
11.7552
0.0124971
11.7522
0.0127502
11.7492
0.0130085
11.7461
0.0132722
11.743
0.0135415
11.7398
0.0138163
11.7365
0.0140969
11.7331
0.0143834
11.7297
0.0146759
11.7262
0.0149745
11.7227
0.0152794
11.719
0.0155907
11.7153
0.0159084
11.7115
0.0162329
11.7077
0.0165642
11.7037
0.0169026
11.6997
0.017248
11.6956
0.0176007
11.6913
0.0179608
11.687
0.0183286
11.6827
0.0187041
11.6782
0.0190877
11.6736
0.0194793
11.6689
0.0198792
11.6641
0.0202877
11.6593
0.0207048
11.6543
0.0211308
11.6492
0.0215659
11.644
0.0220103
11.6387
0.0224642
11.6332
0.0229278
11.6277
0.0234014
11.622
0.0238851
11.6163
0.0243792
11.6103
0.024884
11.6043
0.0253997
11.5981
0.0259265
11.5919
0.0264646
11.5854
0.0270145
11.5788
0.0275763
11.5721
0.0281503
11.5653
0.0287369
11.5583
0.0293362
11.5511
0.0299487
11.5438
0.0305746
11.5363
0.0312142
11.5287
0.0318679
11.5209
0.032536
11.5129
0.0332189
11.5048
0.0339169
11.4965
0.0346304
11.488
0.0353598
11.4793
0.0361055
11.4704
0.0368678
11.4613
0.0376472
11.4521
0.038444
11.4426
0.0392588
11.4329
0.040092
11.423
0.0409442
11.4129
0.0418157
11.4026
0.042707
11.3921
0.0436184
11.3813
0.0445507
11.3703
0.0455043
11.359
0.0464799
11.3475
0.0474782
11.3357
0.0484995
11.3237
0.0495444
11.3114
0.0506134
11.2989
0.0517071
11.286
0.0528264
11.2729
0.053972
11.2595
0.0551447
11.2458
0.056345
11.2318
0.0575735
11.2175
0.0588307
11.2029
0.0601177
11.1879
0.0614353
11.1726
0.0627844
11.157
0.0641659
11.1411
0.0655805
11.1247
0.0670288
11.1081
0.0685117
11.091
0.0700302
11.0736
0.0715854
11.0557
0.0731784
11.0375
0.0748102
11.0189
0.0764817
10.9999
0.0781937
10.9804
0.0799472
10.9605
0.0817434
10.9402
0.0835835
10.9194
0.0854687
10.8981
0.0874003
10.8764
0.0893795
10.8542
0.0914077
10.8314
0.0934859
10.8082
0.0956152
10.7845
0.0977968
10.7602
0.100032
10.7354
0.102322
10.71
0.104669
10.684
0.107075
10.6575
0.109542
10.6304
0.112071
10.6027
0.114661
10.5743
0.117315
10.5453
0.120033
10.5157
0.12282
10.4853
0.125678
10.4543
0.128608
10.4226
0.131613
10.3902
0.134692
10.3571
0.137845
10.3232
0.141075
10.2885
0.144386
10.2531
0.147782
10.2169
0.151265
10.1798
0.154837
10.1419
0.158495
10.1032
0.162242
10.0635
0.16608
10.023
0.170015
9.98156
0.174052
9.93917
0.178194
9.89583
0.18244
9.8515
0.186788
9.80616
0.191239
9.75979
0.195796
9.71237
0.20047
9.66387
0.205268
9.61426
0.210193
9.56353
0.215243
9.51164
0.220412
9.45857
0.2257
9.40429
0.231112
9.34877
0.236658
9.29198
0.242352
9.23389
0.2482
9.17447
0.254203
9.1137
0.260352
9.05154
0.266643
8.98796
0.273075
8.92292
0.279659
8.85639
0.28641
8.78833
0.293346
8.7187
0.300476
0.307791
11.2346
0.0103496
-11.2364
11.2327
0.0105584
11.2309
0.0107716
11.229
0.0109892
11.227
0.0112114
11.225
0.0114382
11.223
0.0116698
11.2209
0.0119061
11.2188
0.0121475
11.2166
0.0123939
11.2144
0.0126455
11.2122
0.0129023
11.2099
0.0131645
11.2075
0.0134323
11.2051
0.0137056
11.2027
0.0139847
11.2002
0.0142697
11.1976
0.0145607
11.195
0.0148578
11.1924
0.0151611
11.1896
0.0154708
11.1869
0.0157871
11.184
0.0161101
11.1811
0.0164399
11.1782
0.0167766
11.1751
0.0171205
11.1721
0.0174716
11.1689
0.0178302
11.1657
0.0181963
11.1624
0.0185703
11.159
0.0189521
11.1556
0.0193421
11.1521
0.0197404
11.1485
0.0201471
11.1448
0.0205624
11.1411
0.0209867
11.1373
0.02142
11.1334
0.0218625
11.1294
0.0223145
11.1253
0.0227761
11.1212
0.0232476
11.1169
0.0237292
11.1126
0.0242212
11.1081
0.0247237
11.1036
0.025237
11.099
0.0257613
11.0942
0.026297
11.0894
0.0268442
11.0845
0.0274031
11.0794
0.0279742
11.0743
0.0285576
11.069
0.0291537
11.0636
0.0297627
11.0581
0.0303849
11.0525
0.0310207
11.0468
0.0316703
11.0409
0.0323341
11.0349
0.0330124
11.0288
0.0337055
11.0225
0.0344138
11.0161
0.0351377
11.0096
0.0358775
11.0029
0.0366335
10.996
0.0374063
10.9891
0.0381961
10.9819
0.0390034
10.9746
0.0398286
10.9672
0.0406721
10.9596
0.0415345
10.9518
0.042416
10.9438
0.0433174
10.9357
0.0442388
10.9274
0.0451809
10.9189
0.0461442
10.9102
0.0471292
10.9013
0.0481364
10.8922
0.0491664
10.883
0.0502198
10.8735
0.0512972
10.8638
0.052399
10.8539
0.0535259
10.8437
0.0546785
10.8334
0.0558576
10.8228
0.0570638
10.812
0.058298
10.8009
0.0595605
10.7896
0.0608521
10.7781
0.0621736
10.7662
0.0635257
10.7542
0.0649092
10.7418
0.0663253
10.7292
0.0677745
10.7163
0.0692576
10.7031
0.0707754
10.6896
0.0723287
10.6758
0.0739186
10.6617
0.0755461
10.6472
0.0772123
10.6325
0.0789182
10.6174
0.0806646
10.602
0.0824523
10.5862
0.0842824
10.5701
0.0861563
10.5536
0.0880751
10.5367
0.0900401
10.5195
0.0920523
10.5018
0.0941129
10.4838
0.0962231
10.4654
0.0983841
10.4465
0.100597
10.4272
0.102864
10.4075
0.105186
10.3874
0.107564
10.3667
0.109999
10.3457
0.112495
10.3241
0.115051
10.302
0.11767
10.2795
0.120352
10.2564
0.123099
10.2328
0.125913
10.2087
0.128796
10.184
0.13175
10.1588
0.134778
10.133
0.137881
10.1066
0.141058
10.0796
0.144313
10.052
0.147646
10.0237
0.151061
9.99484
0.154563
9.9653
0.158152
9.93508
0.16183
9.90418
0.165598
9.87257
0.169456
9.84023
0.173408
9.80716
0.177457
9.77333
0.181608
9.73873
0.185865
9.70334
0.190227
9.66714
0.194695
9.63012
0.199269
9.59224
0.203955
9.5535
0.208758
9.51387
0.213683
9.47333
0.218733
9.43186
0.223908
9.38944
0.229205
9.34606
0.234628
9.30167
0.240182
9.25626
0.245877
9.20981
0.251719
9.16229
0.257712
9.11368
0.263853
9.06396
0.270137
9.01309
0.276567
8.96105
0.283149
8.90782
0.289896
8.85335
0.29682
8.79762
0.303927
8.74061
0.311215
8.68228
0.318676
8.62262
0.326309
8.56158
0.334116
8.49913
0.34211
8.43523
0.350309
8.36984
0.358728
8.30294
0.367376
0.376236
10.6949
0.011993
-10.6965
10.6932
0.0122366
10.6915
0.0124855
10.6897
0.0127396
10.6879
0.012999
10.6861
0.0132639
10.6842
0.0135344
10.6823
0.0138106
10.6804
0.0140927
10.6784
0.0143806
10.6764
0.0146748
10.6743
0.014975
10.6722
0.0152817
10.67
0.0155949
10.6678
0.0159147
10.6656
0.0162413
10.6632
0.0165748
10.6609
0.0169153
10.6585
0.0172632
10.656
0.0176184
10.6535
0.0179812
10.651
0.0183516
10.6483
0.01873
10.6457
0.0191165
10.6429
0.0195111
10.6401
0.0199142
10.6373
0.0203259
10.6344
0.0207464
10.6314
0.0211759
10.6283
0.0216146
10.6252
0.0220627
10.622
0.0225204
10.6188
0.0229878
10.6155
0.0234653
10.6121
0.0239531
10.6086
0.0244514
10.6051
0.0249603
10.6015
0.0254803
10.5978
0.0260114
10.594
0.026554
10.5901
0.0271083
10.5862
0.0276745
10.5822
0.028253
10.578
0.0288441
10.5738
0.0294479
10.5695
0.0300649
10.5651
0.0306952
10.5606
0.0313392
10.556
0.0319973
10.5513
0.0326697
10.5465
0.0333567
10.5416
0.0340588
10.5366
0.0347762
10.5315
0.0355093
10.5263
0.0362584
10.5209
0.037024
10.5154
0.0378065
10.5098
0.0386061
10.5041
0.0394234
10.4983
0.0402587
10.4923
0.0411125
10.4862
0.0419851
10.4799
0.0428772
10.4736
0.043789
10.467
0.044721
10.4604
0.0456739
10.4536
0.046648
10.4466
0.0476438
10.4395
0.048662
10.4322
0.049703
10.4247
0.0507673
10.4171
0.0518556
10.4093
0.0529685
10.4013
0.0541064
10.3932
0.0552701
10.3849
0.0564602
10.3764
0.0576772
10.3677
0.0589221
10.3588
0.0601952
10.3497
0.0614975
10.3404
0.0628294
10.3309
0.0641919
10.3211
0.0655857
10.3112
0.0670116
10.301
0.0684705
10.2906
0.069963
10.28
0.07149
10.2691
0.0730524
10.258
0.074651
10.2466
0.0762869
10.235
0.077961
10.2231
0.0796743
10.2109
0.0814277
10.1984
0.0832221
10.1857
0.0850585
10.1727
0.086938
10.1594
0.0888621
10.1458
0.0908316
10.1318
0.0928479
10.1176
0.0949119
10.103
0.0970248
10.0881
0.0991877
10.0729
0.101402
10.0573
0.103669
10.0413
0.105991
10.025
0.108368
10.0083
0.110802
9.99123
0.113294
9.97377
0.115847
9.9559
0.11846
9.93763
0.121136
9.91894
0.123877
9.89982
0.126684
9.88026
0.129558
9.86025
0.132503
9.83978
0.135519
9.81885
0.138608
9.79743
0.141771
9.77551
0.145011
9.7531
0.148328
9.73017
0.151727
9.70671
0.15521
9.68271
0.158778
9.65815
0.162434
9.63304
0.166177
9.60734
0.170009
9.58105
0.173934
9.55416
0.177956
9.52664
0.182077
9.49849
0.186302
9.46969
0.19063
9.44023
0.195062
9.41008
0.1996
9.37924
0.204247
9.34769
0.209008
9.31541
0.213888
9.28239
0.218891
9.2486
0.224017
9.21402
0.229266
9.17865
0.23464
9.14247
0.240143
9.10544
0.245783
9.06756
0.251565
9.0288
0.257492
8.98915
0.263563
8.94857
0.269778
8.90706
0.27614
8.86458
0.282657
8.82112
0.289338
8.77665
0.29619
8.73115
0.303214
8.6846
0.310408
8.63696
0.31777
8.58823
0.325304
8.53836
0.333019
8.48732
0.340928
8.4351
0.349042
8.38166
0.357365
8.32699
0.365893
8.27104
0.374623
8.2138
0.383553
8.15522
0.39269
8.09528
0.402051
8.03394
0.411653
7.97116
0.421508
7.90691
0.431622
0.441975
10.1811
0.0134991
-10.1826
10.1795
0.0137753
10.178
0.0140574
10.1764
0.0143454
10.1747
0.0146396
10.173
0.0149401
10.1713
0.0152469
10.1696
0.0155603
10.1678
0.0158803
10.166
0.0162071
10.1641
0.016541
10.1622
0.0168818
10.1603
0.01723
10.1583
0.0175856
10.1562
0.0179489
10.1541
0.0183199
10.152
0.0186988
10.1499
0.0190858
10.1476
0.0194811
10.1454
0.0198849
10.1431
0.0202973
10.1407
0.0207186
10.1383
0.0211489
10.1358
0.0215884
10.1333
0.0220374
10.1307
0.0224961
10.128
0.0229646
10.1254
0.0234432
10.1226
0.0239321
10.1198
0.0244316
10.1169
0.0249418
10.114
0.0254631
10.1109
0.0259956
10.1079
0.0265396
10.1047
0.0270954
10.1015
0.0276632
10.0982
0.0282434
10.0949
0.0288361
10.0915
0.0294417
10.0879
0.0300605
10.0844
0.0306927
10.0807
0.0313387
10.077
0.0319987
10.0731
0.0326731
10.0692
0.0333623
10.0652
0.0340666
10.0611
0.0347861
10.0569
0.0355215
10.0527
0.036273
10.0483
0.037041
10.0438
0.0378259
10.0392
0.038628
10.0346
0.0394477
10.0298
0.0402856
10.0249
0.0411419
10.0199
0.0420171
10.0148
0.0429117
10.0096
0.0438261
10.0043
0.0447608
9.9988
0.0457163
9.99322
0.046693
9.98751
0.0476914
9.98168
0.0487122
9.97571
0.0497556
9.96961
0.0508225
9.96337
0.0519133
9.95699
0.0530285
9.95047
0.0541688
9.94379
0.0553347
9.93697
0.0565269
9.92999
0.0577461
9.92285
0.0589928
9.91555
0.0602678
9.90809
0.0615716
9.90045
0.0629051
9.89265
0.0642689
9.88466
0.0656639
9.87649
0.0670907
9.86814
0.0685502
9.85959
0.0700432
9.85085
0.0715703
9.84191
0.0731326
9.83276
0.0747309
9.82341
0.0763661
9.81384
0.0780391
9.80405
0.079751
9.79404
0.0815025
9.7838
0.0832947
9.77332
0.0851285
9.7626
0.0870051
9.75164
0.0889256
9.74042
0.0908911
9.72895
0.0929027
9.71721
0.0949614
9.7052
0.0970685
9.69291
0.0992251
9.68034
0.101433
9.66748
0.103692
9.65432
0.106006
9.64086
0.108374
9.62708
0.110798
9.61299
0.11328
9.59857
0.11582
9.58382
0.118421
9.56873
0.121085
9.55329
0.123811
9.53748
0.126604
9.52132
0.129463
9.50477
0.13239
9.48784
0.135388
9.47052
0.138457
9.4528
0.1416
9.43467
0.144818
9.41611
0.148115
9.39712
0.151491
9.37769
0.154949
9.35781
0.15849
9.33747
0.162116
9.31665
0.165828
9.29535
0.16963
9.27355
0.173526
9.25124
0.177517
9.22841
0.181605
9.20506
0.185792
9.18115
0.190079
9.1567
0.194467
9.13167
0.198962
9.10606
0.203568
9.07984
0.208288
9.05302
0.213125
9.02557
0.218078
8.99749
0.22315
8.96875
0.228341
8.93934
0.233658
8.90924
0.239106
8.87844
0.24469
8.84691
0.250413
8.81466
0.256275
8.78165
0.262276
8.74787
0.268419
8.7133
0.274711
8.67792
0.281158
8.64172
0.287767
8.60467
0.29454
8.56676
0.301477
8.52796
0.308578
8.48825
0.315847
8.44762
0.323293
8.40603
0.330925
8.36347
0.33875
8.31992
0.346769
8.27534
0.354981
8.22973
0.363384
8.18305
0.371985
8.13527
0.380795
8.08637
0.389826
8.03633
0.399088
7.98511
0.408584
7.93269
0.418311
7.87905
0.428266
7.82415
0.43845
7.76797
0.448876
7.71046
0.459559
7.6516
0.470516
7.59135
0.481758
7.52968
0.493288
0.505084
9.69187
0.0148813
-9.69325
9.69045
0.0151878
9.68901
0.0155009
9.68754
0.0158207
9.68603
0.0161473
9.68449
0.0164809
9.68291
0.0168216
9.6813
0.0171697
9.67966
0.0175252
9.67798
0.0178883
9.67626
0.0182592
9.6745
0.0186381
9.67271
0.0190251
9.67087
0.0194204
9.669
0.0198242
9.66708
0.0202367
9.66512
0.0206582
9.66312
0.0210886
9.66107
0.0215284
9.65898
0.0219776
9.65684
0.0224365
9.65465
0.0229054
9.65242
0.0233844
9.65013
0.0238737
9.6478
0.0243736
9.64541
0.0248843
9.64297
0.0254061
9.64047
0.0259392
9.63792
0.0264839
9.63531
0.0270404
9.63264
0.027609
9.62991
0.02819
9.62713
0.0287836
9.62428
0.0293901
9.62136
0.0300098
9.61838
0.0306431
9.61534
0.0312901
9.61222
0.0319513
9.60904
0.032627
9.60578
0.0333174
9.60245
0.0340229
9.59904
0.0347439
9.59556
0.0354807
9.592
0.0362337
9.58836
0.0370033
9.58464
0.0377897
9.58083
0.0385935
9.57694
0.039415
9.57295
0.0402546
9.56888
0.0411128
9.56472
0.0419899
9.56046
0.0428864
9.5561
0.0438028
9.55165
0.0447395
9.5471
0.0456971
9.54244
0.0466758
9.53767
0.0476764
9.5328
0.0486994
9.52781
0.049745
9.52272
0.0508142
9.5175
0.0519071
9.51217
0.0530247
9.50671
0.0541672
9.50113
0.0553354
9.49543
0.0565299
9.48959
0.0577514
9.48362
0.0590003
9.47751
0.0602775
9.47126
0.0615836
9.46487
0.0629192
9.45833
0.0642852
9.45164
0.0656823
9.44479
0.0671112
9.43779
0.0685726
9.43063
0.0700673
9.4233
0.0715962
9.41581
0.0731602
9.40814
0.0747601
9.40029
0.0763969
9.39226
0.0780713
9.38405
0.0797842
9.37565
0.0815367
9.36705
0.0833296
9.35825
0.0851641
9.34925
0.0870413
9.34004
0.0889621
9.33061
0.0909277
9.32097
0.092939
9.3111
0.0949971
9.301
0.0971034
9.29067
0.0992591
9.28009
0.101466
9.26927
0.103724
9.2582
0.106035
9.24686
0.108401
9.23527
0.110822
9.2234
0.1133
9.21125
0.115838
9.19882
0.118435
9.1861
0.121095
9.17309
0.123817
9.15976
0.126603
9.14613
0.129456
9.13217
0.132377
9.11789
0.135368
9.10327
0.13843
9.08831
0.141566
9.07299
0.144776
9.05732
0.148064
9.04128
0.15143
9.02486
0.154876
9.00805
0.158405
8.99085
0.162019
8.97325
0.16572
8.95523
0.169511
8.93678
0.173393
8.91791
0.177368
8.89858
0.181438
8.87881
0.185605
8.85856
0.189874
8.83784
0.194246
8.81663
0.198726
8.79493
0.203314
8.77271
0.208011
8.74996
0.212821
8.72669
0.217745
8.70286
0.222789
8.67847
0.227958
8.6535
0.233253
8.62795
0.238678
8.6018
0.244233
8.57503
0.249919
8.54763
0.255741
8.51958
0.261704
8.49087
0.267814
8.46149
0.274076
8.43141
0.280492
8.40062
0.287062
8.36911
0.293788
8.33685
0.300672
8.30384
0.307724
8.27005
0.31495
8.23546
0.322358
8.20005
0.329947
8.16381
0.337718
8.12672
0.345672
8.08875
0.353815
8.04989
0.362156
8.01011
0.370705
7.96939
0.379469
7.92771
0.388449
7.88504
0.397642
7.84138
0.407052
7.79668
0.416683
7.75093
0.426548
7.70409
0.436661
7.65615
0.44703
7.60708
0.457658
7.55684
0.468542
7.50543
0.47968
7.4528
0.491078
7.39893
0.502747
7.34378
0.514707
7.28733
0.526972
7.22953
0.539552
7.17037
0.552448
0.565637
9.22608
0.0161494
-9.22735
9.22479
0.0164841
9.22346
0.0168262
9.22211
0.0171755
9.22072
0.0175324
9.2193
0.0178969
9.21786
0.0182693
9.21638
0.0186497
9.21486
0.0190384
9.21332
0.0194354
9.21173
0.019841
9.21012
0.0202553
9.20846
0.0206786
9.20677
0.0211111
9.20504
0.0215529
9.20328
0.0220043
9.20147
0.0224655
9.19962
0.0229366
9.19773
0.023418
9.1958
0.0239098
9.19382
0.0244124
9.1918
0.0249258
9.18974
0.0254504
9.18762
0.0259864
9.18546
0.0265341
9.18326
0.0270937
9.181
0.0276655
9.17869
0.0282497
9.17632
0.0288468
9.17391
0.0294569
9.17143
0.0300803
9.16891
0.0307173
9.16632
0.0313683
9.16368
0.0320336
9.16098
0.0327134
9.15821
0.0334081
9.15538
0.0341182
9.15249
0.0348438
9.14953
0.0355854
9.14651
0.0363432
9.14341
0.0371178
9.14025
0.0379094
9.13701
0.0387186
9.1337
0.0395456
9.13031
0.0403909
9.12684
0.0412549
9.1233
0.042138
9.11967
0.0430407
9.11596
0.0439634
9.11217
0.0449067
9.10829
0.0458709
9.10432
0.0468565
9.10026
0.0478642
9.0961
0.0488943
9.09185
0.0499474
9.0875
0.0510241
9.08306
0.0521249
9.0785
0.0532504
9.07385
0.0544011
9.06909
0.0555777
9.06421
0.0567807
9.05923
0.0580109
9.05412
0.0592688
9.0489
0.0605551
9.04356
0.0618706
9.0381
0.0632158
9.03251
0.0645915
9.02679
0.0659984
9.02093
0.0674374
9.01494
0.0689091
9.00881
0.0704145
9.00254
0.0719543
8.99612
0.0735293
8.98956
0.0751403
8.98284
0.0767882
8.97596
0.078474
8.96892
0.0801987
8.96172
0.0819632
8.95434
0.0837685
8.9468
0.0856155
8.93908
0.0875052
8.93118
0.0894386
8.92309
0.0914169
8.91481
0.0934413
8.90634
0.095513
8.89767
0.0976332
8.88879
0.0998027
8.87971
0.102023
8.87041
0.104295
8.8609
0.10662
8.85115
0.109001
8.84118
0.111437
8.83098
0.113931
8.82053
0.116483
8.80983
0.119096
8.79888
0.12177
8.78768
0.124508
8.7762
0.127311
8.76446
0.13018
8.75244
0.133118
8.74013
0.136125
8.72753
0.139204
8.71463
0.142355
8.70142
0.145583
8.68791
0.148887
8.67406
0.152271
8.65989
0.155735
8.64539
0.159283
8.63054
0.162915
8.61533
0.166634
8.59977
0.170442
8.58383
0.174341
8.56751
0.178335
8.55081
0.182425
8.53371
0.186613
8.5162
0.190902
8.49827
0.195294
8.47992
0.199791
8.46113
0.204396
8.44189
0.209112
8.42219
0.213943
8.40203
0.218891
8.38138
0.223959
8.36025
0.229147
8.33861
0.23446
8.31645
0.239901
8.29377
0.245473
8.27054
0.251182
8.24676
0.257031
8.22242
0.263021
8.1975
0.269153
8.17199
0.275432
8.14587
0.281861
8.11913
0.288447
8.09175
0.295195
8.06371
0.302109
8.03501
0.309191
8.00563
0.316442
7.97556
0.323864
7.94477