/*--------------------------------*- C++ -*----------------------------------*\
  =========                 |
  \\      /  F ield         | OpenFOAM: The Open Source CFD Toolbox
   \\    /   O peration     | Website:  https://openfoam.org
    \\  /    A nd           | Version:  13
     \\/     M anipulation  |
\*---------------------------------------------------------------------------*/
FoamFile
{
    format      ascii;
    class       volVectorField;
    location    "0.55";
    object      U;
}
// * * * * * * * * * * * * * * * * * * * * * * * * * * * * * * * * * * * * * //

dimensions      [0 1 -1 0 0 0 0];

internalField   nonuniform List<vector> 
68864
(
(30.0155 -0.131049 -1.42428e-21)
(30.0156 -0.131594 -4.27905e-23)
(30.0156 -0.132146 1.1452e-20)
(30.0157 -0.132704 -1.2775e-20)
(30.0157 -0.133269 1.23556e-21)
(30.0158 -0.133841 -1.87956e-21)
(30.0158 -0.13442 5.73519e-21)
(30.0159 -0.135006 -1.87756e-21)
(30.016 -0.135599 2.10957e-21)
(30.016 -0.136199 -7.65853e-21)
(30.0161 -0.136806 4.36799e-21)
(30.0161 -0.13742 5.41032e-22)
(30.0162 -0.138042 -8.85933e-21)
(30.0163 -0.138671 3.61741e-21)
(30.0163 -0.139307 5.06826e-21)
(30.0164 -0.13995 -3.3215e-21)
(30.0165 -0.140601 5.13588e-21)
(30.0165 -0.141259 3.64433e-21)
(30.0166 -0.141925 -1.82662e-21)
(30.0166 -0.142599 -5.99763e-21)
(30.0167 -0.143279 8.80587e-21)
(30.0168 -0.143968 4.48654e-21)
(30.0168 -0.144664 -6.1733e-21)
(30.0169 -0.145368 -6.95687e-21)
(30.017 -0.146079 4.12253e-21)
(30.017 -0.146798 -8.13108e-21)
(30.0171 -0.147525 3.71722e-21)
(30.0172 -0.14826 8.12332e-21)
(30.0172 -0.149002 -1.78018e-20)
(30.0173 -0.149752 -1.25495e-20)
(30.0174 -0.15051 3.84297e-21)
(30.0175 -0.151276 1.04324e-20)
(30.0175 -0.152049 -7.54277e-21)
(30.0176 -0.152831 2.00944e-20)
(30.0177 -0.153619 1.19987e-20)
(30.0177 -0.154416 -2.16018e-20)
(30.0178 -0.15522 2.20915e-20)
(30.0179 -0.156032 -1.06548e-20)
(30.018 -0.156852 -1.32157e-20)
(30.018 -0.157679 2.72295e-20)
(30.0181 -0.158514 -2.65752e-20)
(30.0182 -0.159357 2.56131e-20)
(30.0183 -0.160207 -9.27996e-21)
(30.0184 -0.161064 3.6267e-22)
(30.0184 -0.161929 -2.75832e-20)
(30.0185 -0.162801 3.18865e-20)
(30.0186 -0.16368 -9.76797e-21)
(30.0187 -0.164566 -9.50306e-21)
(30.0188 -0.16546 -8.68344e-22)
(30.0189 -0.16636 1.31247e-20)
(30.0189 -0.167267 -1.04749e-20)
(30.019 -0.168181 -3.84456e-21)
(30.0191 -0.169101 2.05669e-20)
(30.0192 -0.170028 -8.89818e-21)
(30.0193 -0.170961 3.94488e-21)
(30.0194 -0.171901 -9.14899e-21)
(30.0195 -0.172846 1.33216e-20)
(30.0196 -0.173797 -1.17724e-20)
(30.0197 -0.174754 8.02319e-21)
(30.0198 -0.175716 -1.94287e-20)
(30.0198 -0.176684 3.03928e-21)
(30.0199 -0.177656 1.46535e-20)
(30.02 -0.178634 -3.7914e-21)
(30.0201 -0.179616 1.10685e-20)
(30.0202 -0.180602 -1.17903e-20)
(30.0203 -0.181593 4.28512e-21)
(30.0204 -0.182587 -5.14875e-21)
(30.0205 -0.183585 3.44594e-21)
(30.0206 -0.184587 2.90781e-22)
(30.0207 -0.185591 4.30787e-21)
(30.0208 -0.186598 4.13778e-21)
(30.0209 -0.187608 -4.27347e-21)
(30.0211 -0.188619 -1.65078e-20)
(30.0212 -0.189632 1.85068e-20)
(30.0213 -0.190648 -7.99671e-21)
(30.0214 -0.191664 -6.51369e-21)
(30.0215 -0.192681 2.11645e-20)
(30.0216 -0.193698 -2.41903e-20)
(30.0217 -0.194714 9.45765e-21)
(30.0218 -0.19573 -1.32961e-20)
(30.0219 -0.196745 2.41095e-20)
(30.022 -0.197761 -1.60818e-20)
(30.0221 -0.198775 4.34298e-21)
(30.0223 -0.199786 1.15609e-20)
(30.0224 -0.200793 -1.43305e-20)
(30.0225 -0.201797 -2.16667e-21)
(30.0226 -0.202799 1.15961e-20)
(30.0227 -0.203797 -4.05701e-21)
(30.0228 -0.204792 -7.98848e-21)
(30.0229 -0.205783 1.44341e-20)
(30.023 -0.206767 4.12398e-21)
(30.0232 -0.207744 4.41773e-21)
(30.0233 -0.208715 -1.85071e-20)
(30.0234 -0.20968 7.37022e-21)
(30.0235 -0.21064 -1.95663e-20)
(30.0236 -0.211593 2.26261e-20)
(30.0237 -0.212537 -3.07753e-20)
(30.0238 -0.213472 2.40079e-20)
(30.0239 -0.214396 1.28794e-21)
(30.024 -0.215311 -2.39609e-20)
(30.0242 -0.216217 3.42147e-20)
(30.0243 -0.217115 -1.14362e-20)
(30.0244 -0.218003 -1.61396e-20)
(30.0245 -0.21888 2.033e-21)
(30.0246 -0.219744 6.46488e-21)
(30.0247 -0.220595 -4.17877e-21)
(30.0248 -0.221433 1.23096e-20)
(30.0249 -0.222258 3.62822e-21)
(30.025 -0.223072 -1.56363e-20)
(30.0251 -0.223873 2.2758e-21)
(30.0252 -0.224662 2.18819e-21)
(30.0253 -0.225437 1.01701e-21)
(30.0254 -0.226198 3.24208e-21)
(30.0255 -0.226942 -9.27823e-21)
(30.0256 -0.227669 1.18667e-20)
(30.0256 -0.228379 -5.16637e-21)
(30.0257 -0.229075 5.28159e-22)
(30.0258 -0.229758 7.61508e-21)
(30.0259 -0.23043 -3.20402e-21)
(30.026 -0.231089 -4.67751e-21)
(30.0261 -0.231729 -3.24469e-21)
(30.0261 -0.232347 5.76289e-21)
(30.0262 -0.232942 -4.29823e-21)
(30.0263 -0.23352 8.7861e-21)
(30.0264 -0.234086 -6.15069e-22)
(30.0264 -0.234646 7.65245e-22)
(30.0265 -0.235196 -5.1365e-21)
(30.0266 -0.235727 -1.05822e-21)
(30.0266 -0.236233 -1.84202e-21)
(30.0267 -0.236711 2.88326e-21)
(30.0267 -0.237167 -1.94939e-21)
(30.0268 -0.237614 3.88962e-21)
(30.0268 -0.238058 -2.34058e-21)
(30.0269 -0.238499 -4.95583e-24)
(30.027 -0.238924 1.597e-21)
(30.027 -0.23932 -2.61631e-21)
(30.0271 -0.239683 8.38629e-22)
(30.0271 -0.240022 1.83116e-22)
(30.0271 -0.240355 2.02173e-22)
(30.0272 -0.240693 1.17732e-21)
(30.0272 -0.241033 -2.53406e-21)
(30.0273 -0.241358 2.59449e-21)
(30.0273 -0.24165 -1.86448e-21)
(30.0273 -0.241904 -7.51847e-22)
(30.0274 -0.242132 5.09561e-22)
(30.0274 -0.242359 1.5342e-21)
(30.0274 -0.242603 -3.13599e-22)
(30.0274 -0.242861 -1.10496e-21)
(30.0275 -0.243108 5.30813e-22)
(30.0275 -0.243315 6.21501e-22)
(30.0275 -0.243472 -7.93617e-22)
(30.0275 -0.243593 4.64125e-22)
(30.0276 -0.243713 -1.20858e-22)
(30.0276 -0.243861 -2.21711e-22)
(30.0276 -0.244043 2.41971e-24)
(30.0276 -0.244233 1.01128e-22)
(30.0276 -0.244391 1.12402e-22)
(30.0277 -0.244488 -1.04422e-22)
(30.0277 -0.244529 2.23246e-23)
(30.0277 -0.244543 2.23172e-24)
(30.0277 -0.244575 1.16176e-23)
(30.0277 -0.244652 4.04064e-23)
(30.0277 -0.244771 -3.67942e-23)
(30.0277 -0.244897 1.68969e-23)
(30.0277 -0.244986 -1.74019e-23)
(30.0278 -0.244995 1.83373e-24)
(30.0278 -0.244921 4.99013e-25)
(30.0164 -0.13161 -3.12842e-21)
(30.0164 -0.132107 2.74687e-21)
(30.0165 -0.132611 -3.35603e-20)
(30.0166 -0.133122 5.22096e-21)
(30.0166 -0.133639 6.07828e-21)
(30.0167 -0.134164 2.47093e-20)
(30.0168 -0.134696 -3.03856e-20)
(30.0168 -0.135235 2.98712e-20)
(30.0169 -0.135782 -4.10365e-20)
(30.017 -0.136336 4.61148e-21)
(30.0171 -0.136898 1.7663e-20)
(30.0171 -0.137466 -1.71452e-20)
(30.0172 -0.138043 -1.42114e-21)
(30.0173 -0.138627 1.63397e-20)
(30.0174 -0.139219 6.81842e-22)
(30.0174 -0.139819 -6.19219e-21)
(30.0175 -0.140426 1.80501e-20)
(30.0176 -0.141041 -1.30312e-20)
(30.0177 -0.141664 3.9762e-21)
(30.0178 -0.142295 3.59747e-21)
(30.0179 -0.142934 -4.14093e-21)
(30.0179 -0.143582 -3.25937e-21)
(30.018 -0.144237 2.84987e-20)
(30.0181 -0.1449 -3.84317e-20)
(30.0182 -0.145571 -5.96027e-21)
(30.0183 -0.146251 3.05315e-20)
(30.0184 -0.146939 -1.6922e-20)
(30.0185 -0.147635 1.10519e-20)
(30.0186 -0.148339 -1.98278e-20)
(30.0187 -0.149051 1.16912e-20)
(30.0188 -0.149772 -1.45071e-20)
(30.0189 -0.150501 2.96694e-20)
(30.019 -0.151239 -2.39311e-20)
(30.0191 -0.151985 -1.81373e-20)
(30.0192 -0.152739 6.93992e-20)
(30.0193 -0.153501 2.97947e-21)
(30.0194 -0.154272 -3.25875e-20)
(30.0195 -0.155051 1.89081e-21)
(30.0196 -0.155838 1.26064e-20)
(30.0197 -0.156634 -7.1703e-21)
(30.0198 -0.157438 -2.05339e-20)
(30.0199 -0.15825 1.30988e-20)
(30.02 -0.15907 1.54226e-20)
(30.0202 -0.159898 -2.16376e-20)
(30.0203 -0.160734 -1.58181e-20)
(30.0204 -0.161579 3.3832e-20)
(30.0205 -0.162431 -5.81197e-20)
(30.0206 -0.163291 6.98402e-20)
(30.0208 -0.164159 -3.89147e-20)
(30.0209 -0.165034 -2.06494e-20)
(30.021 -0.165917 6.77231e-21)
(30.0212 -0.166808 4.78153e-20)
(30.0213 -0.167706 -4.23197e-22)
(30.0214 -0.168611 3.83027e-21)
(30.0216 -0.169524 -4.31251e-20)
(30.0217 -0.170443 -1.62523e-20)
(30.0218 -0.171369 2.8057e-20)
(30.022 -0.172302 -1.35667e-20)
(30.0221 -0.173242 5.0332e-21)
(30.0223 -0.174187 -2.10408e-21)
(30.0224 -0.175139 1.24441e-21)
(30.0226 -0.176097 1.27391e-20)
(30.0227 -0.177061 3.57687e-20)
(30.0229 -0.17803 -5.02987e-20)
(30.023 -0.179005 2.45989e-20)
(30.0232 -0.179984 -3.80919e-20)
(30.0234 -0.180969 -1.25388e-20)
(30.0235 -0.181958 4.05194e-20)
(30.0237 -0.182952 1.51712e-20)
(30.0239 -0.183949 -1.01983e-20)
(30.024 -0.18495 -2.36945e-20)
(30.0242 -0.185954 3.56174e-20)
(30.0244 -0.186961 -1.62432e-20)
(30.0245 -0.187972 1.30481e-20)
(30.0247 -0.188986 -2.33957e-20)
(30.0249 -0.190002 2.06674e-20)
(30.0251 -0.191019 1.23503e-20)
(30.0253 -0.192037 9.61359e-22)
(30.0255 -0.193055 -3.98297e-20)
(30.0256 -0.194074 2.83035e-20)
(30.0258 -0.195094 -4.4605e-20)
(30.026 -0.196115 3.00371e-20)
(30.0262 -0.197136 -1.33611e-20)
(30.0264 -0.198154 1.66122e-20)
(30.0266 -0.199171 -1.37499e-20)
(30.0268 -0.200184 2.67012e-20)
(30.027 -0.201196 -2.00529e-20)
(30.0272 -0.202206 5.64238e-21)
(30.0274 -0.203214 -1.67228e-21)
(30.0276 -0.204218 -1.64082e-20)
(30.0278 -0.205217 3.22333e-20)
(30.0279 -0.20621 -1.43189e-20)
(30.0281 -0.207198 -9.19575e-21)
(30.0283 -0.208181 -6.87066e-21)
(30.0285 -0.209159 -2.87068e-21)
(30.0287 -0.210131 7.53682e-21)
(30.0289 -0.211096 1.60884e-20)
(30.0291 -0.212052 8.09412e-21)
(30.0293 -0.212998 -2.7135e-20)
(30.0295 -0.213935 -7.92787e-21)
(30.0297 -0.214865 8.16918e-21)
(30.0299 -0.215788 1.56111e-20)
(30.0301 -0.216702 3.74177e-21)
(30.0303 -0.217605 -3.93158e-21)
(30.0305 -0.218495 -9.96082e-21)
(30.0307 -0.219372 -4.24008e-21)
(30.0309 -0.220237 6.44101e-21)
(30.031 -0.22109 1.60139e-20)
(30.0312 -0.221933 -1.53854e-20)
(30.0314 -0.222764 4.37624e-21)
(30.0316 -0.223582 -1.1067e-20)
(30.0318 -0.224387 1.72578e-20)
(30.0319 -0.225177 -8.00542e-21)
(30.0321 -0.225951 -2.95275e-21)
(30.0323 -0.226709 1.34759e-20)
(30.0324 -0.22745 -1.5709e-20)
(30.0326 -0.228177 -4.83927e-22)
(30.0328 -0.228892 4.92444e-21)
(30.0329 -0.229594 8.11818e-21)
(30.0331 -0.230283 -7.10884e-21)
(30.0332 -0.230954 -6.20634e-21)
(30.0334 -0.231603 9.90684e-21)
(30.0335 -0.23223 -5.37951e-21)
(30.0337 -0.232839 1.16602e-21)
(30.0338 -0.233435 7.72636e-22)
(30.0339 -0.234024 -6.93692e-21)
(30.034 -0.234602 7.896e-22)
(30.0342 -0.235162 -1.54269e-22)
(30.0343 -0.235697 9.84368e-21)
(30.0344 -0.236205 -3.94362e-21)
(30.0345 -0.236691 1.76046e-21)
(30.0346 -0.237165 -2.40412e-21)
(30.0347 -0.237636 1.95667e-21)
(30.0348 -0.238101 -2.85015e-21)
(30.0349 -0.23855 5.99552e-21)
(30.035 -0.23897 -6.71182e-21)
(30.0351 -0.239358 4.34047e-21)
(30.0352 -0.239722 -3.80543e-21)
(30.0353 -0.240079 6.27025e-23)
(30.0353 -0.24044 4.53922e-21)
(30.0354 -0.240802 -8.74284e-22)
(30.0355 -0.241148 -1.66372e-21)
(30.0356 -0.241459 1.70092e-21)
(30.0356 -0.241729 5.82669e-22)
(30.0357 -0.241973 -3.07802e-21)
(30.0357 -0.242218 -2.84226e-22)
(30.0358 -0.242482 3.51085e-21)
(30.0358 -0.24276 -3.1848e-21)
(30.0359 -0.243025 1.98955e-21)
(30.0359 -0.243247 7.99738e-22)
(30.0359 -0.243414 -2.4994e-21)
(30.036 -0.243543 6.68981e-22)
(30.036 -0.243672 -6.00034e-22)
(30.036 -0.243833 4.8944e-22)
(30.0361 -0.24403 3.0095e-22)
(30.0361 -0.244235 -3.7964e-22)
(30.0361 -0.244405 8.07245e-22)
(30.0362 -0.24451 -7.32672e-22)
(30.0362 -0.244553 3.00222e-22)
(30.0362 -0.244571 -6.96519e-23)
(30.0362 -0.244608 1.87526e-22)
(30.0362 -0.244694 -3.76109e-23)
(30.0362 -0.244823 -7.12025e-23)
(30.0362 -0.244956 5.52245e-23)
(30.0362 -0.245047 -5.19203e-23)
(30.0362 -0.245051 7.29342e-24)
(30.0362 -0.244972 -4.40571e-24)
(30.0065 -0.131695 -2.34955e-20)
(30.0066 -0.132199 -9.16006e-21)
(30.0067 -0.132708 -1.00845e-20)
(30.0068 -0.133224 2.32663e-20)
(30.0068 -0.133747 -2.90243e-20)
(30.0069 -0.134278 5.34896e-20)
(30.007 -0.134816 -7.47791e-21)
(30.0071 -0.13536 2.04563e-21)
(30.0072 -0.135913 3.25928e-22)
(30.0073 -0.136472 5.32966e-21)
(30.0074 -0.137039 -3.87246e-20)
(30.0075 -0.137613 1.42027e-20)
(30.0076 -0.138195 1.74648e-20)
(30.0078 -0.138785 1.71807e-20)
(30.0079 -0.139382 -2.2007e-20)
(30.008 -0.139987 1.27315e-20)
(30.0081 -0.1406 -2.11204e-21)
(30.0082 -0.14122 1.43397e-21)
(30.0083 -0.141849 -1.88342e-20)
(30.0084 -0.142485 -3.17003e-21)
(30.0086 -0.143129 -1.07096e-20)
(30.0087 -0.143782 -1.14687e-20)
(30.0088 -0.144442 1.85595e-20)
(30.0089 -0.14511 5.26958e-21)
(30.0091 -0.145787 -2.68871e-20)
(30.0092 -0.146471 4.67002e-20)
(30.0093 -0.147164 -3.76615e-20)
(30.0095 -0.147865 6.78312e-21)
(30.0096 -0.148575 3.30324e-20)
(30.0097 -0.149292 1.69014e-21)
(30.0099 -0.150018 -4.442e-20)
(30.01 -0.150752 3.26253e-20)
(30.0102 -0.151495 -3.73121e-20)
(30.0103 -0.152246 -7.59883e-21)
(30.0105 -0.153005 3.27885e-20)
(30.0106 -0.153772 -6.99193e-21)
(30.0108 -0.154548 -1.10147e-20)
(30.0109 -0.155332 2.07309e-20)
(30.0111 -0.156124 5.82996e-21)
(30.0113 -0.156925 1.6859e-20)
(30.0114 -0.157733 -8.49143e-20)
(30.0116 -0.15855 1.72401e-20)
(30.0118 -0.159375 8.97379e-20)
(30.0119 -0.160208 -1.0204e-19)
(30.0121 -0.16105 8.7141e-22)
(30.0123 -0.161899 5.65442e-20)
(30.0125 -0.162756 4.66447e-20)
(30.0127 -0.163621 -2.84126e-20)
(30.0129 -0.164493 1.3607e-20)
(30.0131 -0.165373 -2.34434e-20)
(30.0133 -0.166261 5.39877e-21)
(30.0135 -0.167156 -2.48876e-20)
(30.0137 -0.168059 5.02136e-20)
(30.0139 -0.168969 8.07059e-21)
(30.0141 -0.169886 -4.59368e-20)
(30.0143 -0.17081 -4.26231e-20)
(30.0145 -0.17174 9.89356e-21)
(30.0147 -0.172678 7.4138e-20)
(30.0149 -0.173621 -3.38023e-20)
(30.0152 -0.174571 -3.40798e-20)
(30.0154 -0.175528 -1.92927e-20)
(30.0156 -0.17649 3.723e-20)
(30.0159 -0.177458 6.04463e-20)
(30.0161 -0.178431 -8.4988e-20)
(30.0163 -0.179409 3.64064e-20)
(30.0166 -0.180392 1.41704e-20)
(30.0168 -0.18138 2.63867e-20)
(30.0171 -0.182373 -3.85885e-20)
(30.0173 -0.18337 1.11519e-20)
(30.0176 -0.184371 -1.34806e-20)
(30.0178 -0.185375 4.72539e-20)
(30.0181 -0.186382 -1.63736e-21)
(30.0184 -0.187392 -4.52209e-20)
(30.0186 -0.188405 9.64904e-21)
(30.0189 -0.189422 -1.60006e-21)
(30.0192 -0.19044 1.01481e-20)
(30.0195 -0.19146 -2.49633e-20)
(30.0197 -0.192479 -1.58206e-20)
(30.02 -0.193499 -2.66202e-21)
(30.0203 -0.19452 1.58237e-20)
(30.0206 -0.195542 -2.15756e-20)
(30.0209 -0.196564 5.99188e-20)
(30.0212 -0.197586 -2.84183e-21)
(30.0215 -0.198606 -3.98722e-20)
(30.0218 -0.199623 4.90906e-21)
(30.0221 -0.200637 2.51066e-20)
(30.0224 -0.201648 -1.28528e-20)
(30.0227 -0.202658 -4.65398e-20)
(30.023 -0.203666 5.76239e-20)
(30.0233 -0.20467 -1.88823e-20)
(30.0236 -0.205668 -1.6311e-20)
(30.0239 -0.206661 -1.41248e-20)
(30.0242 -0.207648 8.58631e-21)
(30.0245 -0.208629 5.52127e-20)
(30.0248 -0.209605 -2.38777e-20)
(30.0251 -0.210575 -1.05928e-20)
(30.0254 -0.211537 3.53486e-20)
(30.0257 -0.212491 -3.65633e-20)
(30.026 -0.213435 3.02531e-20)
(30.0263 -0.214371 -2.99207e-20)
(30.0266 -0.215299 -5.73203e-21)
(30.0269 -0.216217 -5.5679e-22)
(30.0272 -0.217127 4.05277e-21)
(30.0275 -0.218025 1.22764e-20)
(30.0278 -0.218911 5.33764e-21)
(30.0281 -0.219785 -3.79093e-20)
(30.0284 -0.220646 1.87391e-20)
(30.0287 -0.221496 2.85851e-20)
(30.029 -0.222333 -5.55145e-21)
(30.0293 -0.223158 -3.65885e-20)
(30.0295 -0.223971 3.93934e-20)
(30.0298 -0.22477 -1.99462e-20)
(30.0301 -0.225556 1.93623e-20)
(30.0304 -0.226325 -2.47875e-21)
(30.0306 -0.227078 -2.83437e-20)
(30.0309 -0.227813 4.39045e-21)
(30.0311 -0.228533 4.32093e-21)
(30.0314 -0.22924 5.82413e-21)
(30.0316 -0.229936 -1.53032e-21)
(30.0319 -0.230619 -7.92012e-21)
(30.0321 -0.231285 -3.59025e-21)
(30.0324 -0.231929 -7.65392e-21)
(30.0326 -0.232549 2.16646e-20)
(30.0328 -0.23315 4.08048e-21)
(30.033 -0.233739 -1.57046e-20)
(30.0332 -0.234319 1.14219e-21)
(30.0334 -0.234889 3.32473e-22)
(30.0336 -0.235444 -7.11891e-21)
(30.0338 -0.235974 4.98617e-21)
(30.034 -0.236477 6.07502e-21)
(30.0342 -0.236956 6.9365e-21)
(30.0343 -0.237422 -6.27933e-21)
(30.0345 -0.237883 1.90186e-21)
(30.0347 -0.238339 -6.50499e-21)
(30.0348 -0.238781 4.92521e-21)
(30.035 -0.239196 -1.03189e-21)
(30.0351 -0.23958 1.23187e-21)
(30.0353 -0.239941 -6.82376e-22)
(30.0354 -0.240291 1.56083e-21)
(30.0355 -0.240643 -2.40138e-21)
(30.0356 -0.240993 -3.81003e-23)
(30.0358 -0.241328 1.44216e-21)
(30.0359 -0.241633 1.54861e-21)
(30.036 -0.241902 7.8977e-22)
(30.0361 -0.242147 -6.11869e-21)
(30.0362 -0.24239 1.44147e-21)
(30.0363 -0.242645 4.26194e-21)
(30.0364 -0.242909 -3.09881e-21)
(30.0364 -0.243159 -4.60288e-22)
(30.0365 -0.243371 1.33927e-21)
(30.0366 -0.243537 -3.27011e-21)
(30.0366 -0.243671 2.60704e-21)
(30.0367 -0.243805 -6.63564e-22)
(30.0368 -0.243965 1.0185e-21)
(30.0368 -0.244151 -5.90391e-22)
(30.0369 -0.244339 2.6684e-23)
(30.037 -0.244492 4.01366e-22)
(30.037 -0.244587 -4.41722e-22)
(30.037 -0.244632 4.30282e-22)
(30.0371 -0.244657 -6.47201e-22)
(30.0371 -0.244704 8.16064e-23)
(30.0372 -0.244792 2.12417e-22)
(30.0372 -0.244912 -4.13367e-23)
(30.0373 -0.245028 8.49919e-24)
(30.0373 -0.245098 4.79923e-23)
(30.0373 -0.245087 -1.78486e-23)
(30.0374 -0.24501 6.12118e-24)
(30.0021 -0.133217 7.51586e-21)
(30.0022 -0.133689 -1.153e-20)
(30.0023 -0.134167 2.78205e-20)
(30.0024 -0.134652 -2.93908e-20)
(30.0025 -0.135145 6.20212e-20)
(30.0026 -0.135644 -8.80507e-20)
(30.0027 -0.136151 4.80904e-20)
(30.0028 -0.136664 3.58427e-20)
(30.003 -0.137186 1.66244e-20)
(30.0031 -0.137714 -4.48341e-20)
(30.0032 -0.13825 3.75216e-20)
(30.0033 -0.138794 -3.46589e-20)
(30.0034 -0.139345 2.06945e-20)
(30.0036 -0.139904 -1.85475e-20)
(30.0037 -0.14047 3.78809e-21)
(30.0038 -0.141044 -2.71988e-20)
(30.004 -0.141627 -1.35647e-20)
(30.0041 -0.142217 6.14798e-20)
(30.0042 -0.142815 -1.78857e-20)
(30.0044 -0.143421 -5.3618e-20)
(30.0045 -0.144035 -1.81904e-20)
(30.0047 -0.144658 2.24946e-20)
(30.0048 -0.145288 -2.50121e-20)
(30.0049 -0.145927 4.90515e-20)
(30.0051 -0.146575 -5.37456e-21)
(30.0053 -0.14723 1.24029e-20)
(30.0054 -0.147894 -3.25498e-20)
(30.0056 -0.148567 2.48724e-20)
(30.0057 -0.149247 2.39146e-20)
(30.0059 -0.149937 2.0933e-20)
(30.0061 -0.150635 -3.51936e-20)
(30.0062 -0.151341 -3.22771e-21)
(30.0064 -0.152056 -5.06006e-20)
(30.0066 -0.15278 8.41201e-20)
(30.0068 -0.153512 -6.9407e-20)
(30.007 -0.154253 5.06416e-21)
(30.0071 -0.155002 2.08428e-20)
(30.0073 -0.15576 -2.83702e-20)
(30.0075 -0.156527 7.34555e-20)
(30.0077 -0.157302 -8.00286e-20)
(30.0079 -0.158085 8.89407e-20)
(30.0081 -0.158878 -7.57828e-20)
(30.0083 -0.159678 3.3452e-20)
(30.0085 -0.160488 2.6846e-20)
(30.0088 -0.161305 -4.25716e-20)
(30.009 -0.162131 1.90851e-20)
(30.0092 -0.162965 -2.60912e-20)
(30.0094 -0.163808 2.06856e-20)
(30.0097 -0.164658 1.74872e-20)
(30.0099 -0.165517 -1.08268e-20)
(30.0101 -0.166384 -6.67171e-21)
(30.0104 -0.167258 7.00267e-20)
(30.0106 -0.168141 -1.03682e-19)
(30.0109 -0.16903 6.6867e-20)
(30.0111 -0.169928 2.14648e-20)
(30.0114 -0.170833 -9.4225e-20)
(30.0117 -0.171745 2.96906e-20)
(30.0119 -0.172664 -2.61858e-20)
(30.0122 -0.17359 9.10113e-20)
(30.0125 -0.174523 -7.42561e-20)
(30.0128 -0.175462 1.86286e-20)
(30.013 -0.176408 -1.7205e-20)
(30.0133 -0.17736 9.0171e-20)
(30.0136 -0.178317 -4.06429e-20)
(30.0139 -0.17928 4.258e-20)
(30.0142 -0.180249 -1.00484e-19)
(30.0145 -0.181223 -4.33145e-20)
(30.0148 -0.182203 3.07686e-20)
(30.0152 -0.183187 3.42803e-20)
(30.0155 -0.184175 3.24398e-20)
(30.0158 -0.185167 2.3981e-20)
(30.0161 -0.186162 -1.12256e-19)
(30.0165 -0.187161 6.42388e-20)
(30.0168 -0.188164 -3.61164e-20)
(30.0171 -0.18917 3.65862e-20)
(30.0175 -0.190178 3.87441e-20)
(30.0178 -0.191189 -9.59581e-20)
(30.0182 -0.192199 1.1834e-19)
(30.0185 -0.19321 -3.61824e-20)
(30.0189 -0.194223 -3.75918e-20)
(30.0192 -0.195237 4.90218e-20)
(30.0196 -0.196253 -5.75232e-20)
(30.02 -0.197268 -2.44167e-20)
(30.0203 -0.198282 2.37906e-20)
(30.0207 -0.199293 4.99554e-20)
(30.0211 -0.200302 -2.71667e-20)
(30.0215 -0.201308 1.47116e-20)
(30.0218 -0.202314 -2.13106e-20)
(30.0222 -0.203318 1.40822e-21)
(30.0226 -0.204319 -4.54132e-20)
(30.023 -0.205314 5.79181e-20)
(30.0234 -0.206304 -1.87563e-20)
(30.0238 -0.207288 5.5748e-20)
(30.0241 -0.208267 -4.04096e-20)
(30.0245 -0.209241 -2.53308e-20)
(30.0249 -0.21021 9.35317e-22)
(30.0253 -0.211173 -7.64753e-21)
(30.0257 -0.212127 -1.28982e-20)
(30.0261 -0.213072 5.95484e-21)
(30.0265 -0.214007 -1.05397e-20)
(30.0268 -0.214935 2.12182e-20)
(30.0272 -0.215855 3.62597e-20)
(30.0276 -0.216766 -1.99597e-20)
(30.028 -0.217667 4.06796e-20)
(30.0284 -0.218556 -2.56143e-20)
(30.0287 -0.219433 1.28045e-20)
(30.0291 -0.220297 -2.48997e-20)
(30.0295 -0.221149 -2.19465e-21)
(30.0298 -0.22199 2.08489e-20)
(30.0302 -0.22282 -4.27153e-20)
(30.0305 -0.223638 3.46254e-20)
(30.0309 -0.224443 1.239e-20)
(30.0312 -0.225234 -4.30281e-20)
(30.0316 -0.226008 3.32753e-20)
(30.0319 -0.226765 -1.4124e-20)
(30.0322 -0.227505 -1.07613e-20)
(30.0326 -0.228231 -8.2815e-21)
(30.0329 -0.228947 3.36156e-21)
(30.0332 -0.229651 -7.93136e-21)
(30.0335 -0.230343 1.63445e-20)
(30.0338 -0.231016 -5.3833e-21)
(30.0341 -0.231665 1.68208e-20)
(30.0343 -0.232292 -2.24713e-20)
(30.0346 -0.2329 1.33741e-20)
(30.0349 -0.233497 1.28283e-20)
(30.0351 -0.234088 -1.94642e-20)
(30.0354 -0.234669 8.70164e-21)
(30.0356 -0.235233 -1.01125e-21)
(30.0359 -0.235771 3.62021e-22)
(30.0361 -0.23628 -1.06733e-20)
(30.0363 -0.236766 2.69645e-20)
(30.0365 -0.237241 -2.27127e-20)
(30.0367 -0.237713 1.10438e-20)
(30.0369 -0.238181 1.511e-21)
(30.0371 -0.238633 -3.76951e-22)
(30.0373 -0.239056 -8.69921e-22)
(30.0374 -0.239448 -8.0966e-21)
(30.0376 -0.239815 7.07478e-21)
(30.0377 -0.240174 2.31706e-21)
(30.0379 -0.240536 -6.99857e-21)
(30.038 -0.240897 -2.35719e-22)
(30.0382 -0.241242 1.93561e-21)
(30.0383 -0.241555 3.50907e-21)
(30.0384 -0.241832 1.06976e-22)
(30.0385 -0.242084 -1.9433e-21)
(30.0386 -0.242335 1.32838e-22)
(30.0387 -0.242598 -2.87386e-22)
(30.0388 -0.24287 -2.62906e-21)
(30.0389 -0.243127 8.34453e-21)
(30.0389 -0.243346 -3.84613e-21)
(30.039 -0.243518 -1.14796e-21)
(30.039 -0.243661 5.8318e-22)
(30.0391 -0.243803 1.75441e-21)
(30.0391 -0.24397 -9.70019e-23)
(30.0392 -0.244162 -1.46888e-21)
(30.0392 -0.244353 -2.97567e-22)
(30.0393 -0.244508 1.33109e-21)
(30.0393 -0.244607 -4.51702e-22)
(30.0393 -0.244658 1.32932e-22)
(30.0393 -0.244693 -1.85028e-22)
(30.0393 -0.244749 -8.68214e-23)
(30.0393 -0.244844 2.02317e-22)
(30.0394 -0.244966 -1.41695e-22)
(30.0394 -0.24508 -5.5077e-23)
(30.0394 -0.245145 1.02507e-22)
(30.0394 -0.245132 -1.78241e-23)
(30.0394 -0.245063 -1.17199e-23)
(29.9945 -0.133759 2.60915e-20)
(29.9946 -0.134234 -3.60416e-20)
(29.9947 -0.134716 -1.40618e-20)
(29.9949 -0.135205 3.66405e-20)
(29.995 -0.135701 -1.32282e-20)
(29.9951 -0.136204 1.32108e-20)
(29.9952 -0.136714 -3.47492e-20)
(29.9953 -0.137232 1.78895e-20)
(29.9955 -0.137757 3.10063e-20)
(29.9956 -0.13829 -5.21825e-20)
(29.9957 -0.13883 8.58895e-20)
(29.9959 -0.139378 -8.51919e-20)
(29.996 -0.139933 5.02703e-20)
(29.9961 -0.140496 -3.7859e-20)
(29.9963 -0.141067 3.99576e-22)
(29.9964 -0.141646 5.85534e-20)
(29.9966 -0.142233 -1.13174e-19)
(29.9967 -0.142828 6.05532e-20)
(29.9969 -0.143431 5.92563e-21)
(29.9971 -0.144042 -1.34311e-21)
(29.9972 -0.144661 -3.0604e-20)
(29.9974 -0.145289 -1.57531e-20)
(29.9976 -0.145924 -3.16076e-20)
(29.9977 -0.146568 9.20654e-20)
(29.9979 -0.147221 -7.04835e-21)
(29.9981 -0.147882 3.49675e-20)
(29.9983 -0.148551 -5.45425e-20)
(29.9985 -0.149229 1.63845e-20)
(29.9986 -0.149916 -3.45832e-20)
(29.9988 -0.150611 4.05638e-20)
(29.999 -0.151314 4.07613e-20)
(29.9992 -0.152026 -5.62734e-20)
(29.9994 -0.152747 -2.75039e-20)
(29.9997 -0.153476 4.36317e-20)
(29.9999 -0.154214 -8.69708e-20)
(30.0001 -0.154961 1.19854e-19)
(30.0003 -0.155716 -4.73982e-20)
(30.0005 -0.15648 4.53426e-20)
(30.0008 -0.157253 9.48518e-21)
(30.001 -0.158034 -5.53689e-20)
(30.0013 -0.158824 8.4284e-21)
(30.0015 -0.159622 1.20822e-20)
(30.0018 -0.160429 -1.31665e-21)
(30.002 -0.161244 -6.95201e-20)
(30.0023 -0.162068 7.43586e-20)
(30.0025 -0.1629 -1.40653e-20)
(30.0028 -0.16374 7.34319e-21)
(30.0031 -0.164589 1.54608e-20)
(30.0034 -0.165445 -3.65295e-20)
(30.0037 -0.16631 4.94344e-20)
(30.004 -0.167183 -3.66116e-20)
(30.0043 -0.168063 -1.14714e-20)
(30.0046 -0.168951 3.40254e-20)
(30.0049 -0.169847 1.33933e-20)
(30.0052 -0.17075 -3.25049e-20)
(30.0055 -0.17166 -1.74806e-20)
(30.0058 -0.172578 -4.97757e-20)
(30.0062 -0.173502 3.40129e-20)
(30.0065 -0.174434 -5.56404e-20)
(30.0068 -0.175371 9.70973e-20)
(30.0072 -0.176316 7.55011e-21)
(30.0076 -0.177267 -1.19043e-19)
(30.0079 -0.178223 1.37918e-19)
(30.0083 -0.179185 -1.07227e-19)
(30.0086 -0.180152 1.50096e-20)
(30.009 -0.181125 6.0894e-20)
(30.0094 -0.182103 -6.127e-20)
(30.0098 -0.183086 7.39336e-20)
(30.0102 -0.184074 -1.20593e-19)
(30.0106 -0.185065 6.41861e-20)
(30.011 -0.186059 5.39894e-20)
(30.0114 -0.187057 -5.69781e-20)
(30.0118 -0.188058 1.1386e-19)
(30.0122 -0.189063 -3.07639e-20)
(30.0127 -0.190071 2.10237e-20)
(30.0131 -0.191081 -1.20865e-19)
(30.0135 -0.192091 2.30596e-20)
(30.014 -0.193102 -4.48035e-20)
(30.0144 -0.194113 9.28741e-20)
(30.0149 -0.195125 -1.02599e-19)
(30.0153 -0.196139 9.70682e-20)
(30.0158 -0.197154 -4.52907e-20)
(30.0163 -0.198168 8.29221e-20)
(30.0167 -0.19918 -1.22624e-19)
(30.0172 -0.200188 9.20622e-20)
(30.0177 -0.201193 -4.44073e-21)
(30.0181 -0.202196 -1.05759e-19)
(30.0186 -0.203199 1.55885e-19)
(30.0191 -0.204199 -8.32609e-20)
(30.0196 -0.205195 -1.71873e-20)
(30.0201 -0.206185 4.8325e-20)
(30.0206 -0.207168 -2.29775e-20)
(30.0211 -0.208145 -1.53955e-20)
(30.0216 -0.209118 5.97301e-20)
(30.022 -0.210086 -6.68936e-20)
(30.0225 -0.211048 2.04608e-21)
(30.023 -0.212003 -3.29575e-20)
(30.0235 -0.212948 6.62536e-20)
(30.024 -0.213882 3.71775e-21)
(30.0245 -0.214808 -1.17501e-20)
(30.025 -0.215725 -5.81156e-21)
(30.0255 -0.216635 -3.08069e-20)
(30.026 -0.217537 7.8874e-21)
(30.0265 -0.218427 3.32364e-20)
(30.0269 -0.219304 -5.98301e-20)
(30.0274 -0.220168 4.73045e-20)
(30.0279 -0.221019 1.61935e-20)
(30.0284 -0.221859 -2.66694e-20)
(30.0288 -0.222688 3.5747e-20)
(30.0293 -0.223505 -1.06661e-21)
(30.0297 -0.22431 -3.06963e-20)
(30.0302 -0.225101 2.06175e-20)
(30.0306 -0.225876 1.38443e-20)
(30.0311 -0.226635 -1.98599e-20)
(30.0315 -0.227377 4.53973e-21)
(30.0319 -0.228104 -9.26483e-21)
(30.0323 -0.228817 -5.61151e-21)
(30.0328 -0.229519 -2.72745e-20)
(30.0332 -0.230209 5.26135e-20)
(30.0336 -0.230883 2.51652e-21)
(30.0339 -0.231539 -2.42564e-20)
(30.0343 -0.232173 4.37996e-21)
(30.0347 -0.232784 -2.10119e-20)
(30.035 -0.23338 2.38403e-20)
(30.0354 -0.233964 1.98099e-20)
(30.0357 -0.234541 -1.9879e-20)
(30.036 -0.235107 1.62441e-20)
(30.0364 -0.235654 -5.73463e-21)
(30.0367 -0.236174 -1.9975e-20)
(30.037 -0.236669 -5.50963e-21)
(30.0373 -0.237143 -1.03698e-21)
(30.0375 -0.237607 3.43033e-21)
(30.0378 -0.238067 2.00091e-20)
(30.0381 -0.238521 -2.25294e-20)
(30.0383 -0.238957 4.63235e-21)
(30.0385 -0.239364 -2.6161e-21)
(30.0388 -0.239741 6.02233e-21)
(30.039 -0.240098 5.75701e-21)
(30.0392 -0.240449 -6.94071e-21)
(30.0394 -0.240802 5.54532e-21)
(30.0396 -0.241152 -6.59407e-21)
(30.0397 -0.241483 5.42627e-21)
(30.0399 -0.24178 -3.02181e-21)
(30.04 -0.242042 -5.29304e-22)
(30.0402 -0.242285 -8.55684e-22)
(30.0403 -0.242532 5.20603e-22)
(30.0404 -0.242792 5.96051e-22)
(30.0406 -0.243056 -1.7893e-21)
(30.0407 -0.243302 3.44595e-21)
(30.0408 -0.243505 1.84281e-23)
(30.0409 -0.243663 9.61831e-22)
(30.0409 -0.243797 -2.39873e-21)
(30.041 -0.243938 1.11178e-21)
(30.0411 -0.244106 5.79263e-22)
(30.0412 -0.244295 -2.44136e-21)
(30.0412 -0.244477 2.25266e-21)
(30.0413 -0.244619 -1.14401e-22)
(30.0413 -0.244705 -9.46336e-22)
(30.0413 -0.244747 -3.9723e-22)
(30.0413 -0.244781 -2.79125e-22)
(30.0414 -0.24484 3.08854e-23)
(30.0414 -0.244938 1.31069e-22)
(30.0414 -0.245059 -1.61568e-22)
(30.0415 -0.245163 -9.95139e-23)
(30.0415 -0.245213 -6.10094e-23)
(30.0415 -0.245185 -2.56316e-23)
(30.0414 -0.245116 -1.10452e-23)
(29.9884 -0.135457 -5.49498e-20)
(29.9885 -0.135921 -3.20175e-20)
(29.9886 -0.136391 7.2907e-20)
(29.9888 -0.136868 -3.76338e-20)
(29.9889 -0.137352 5.15585e-21)
(29.989 -0.137843 8.44995e-21)
(29.9892 -0.138342 7.77657e-21)
(29.9893 -0.138847 3.23721e-20)
(29.9894 -0.13936 -8.5827e-20)
(29.9896 -0.13988 2.34403e-20)
(29.9897 -0.140408 2.91955e-20)
(29.9899 -0.140944 5.98956e-21)
(29.99 -0.141487 -5.80565e-21)
(29.9902 -0.142037 5.12218e-20)
(29.9904 -0.142596 -5.50076e-20)
(29.9905 -0.143162 1.41247e-20)
(29.9907 -0.143736 2.30438e-20)
(29.9909 -0.144318 -4.49003e-20)
(29.991 -0.144908 -2.78512e-20)
(29.9912 -0.145507 7.25064e-20)
(29.9914 -0.146113 -8.30098e-20)
(29.9916 -0.146728 7.50184e-20)
(29.9918 -0.14735 -1.70257e-20)
(29.992 -0.147982 -6.38184e-21)
(29.9922 -0.148621 -6.87235e-20)
(29.9924 -0.149269 3.85678e-21)
(29.9926 -0.149926 9.98459e-20)
(29.9928 -0.150591 -8.03605e-20)
(29.993 -0.151264 -1.66583e-21)
(29.9932 -0.151946 3.30158e-20)
(29.9935 -0.152637 4.09643e-20)
(29.9937 -0.153336 1.51442e-20)
(29.9939 -0.154044 -3.32118e-20)
(29.9942 -0.154761 -6.481e-20)
(29.9944 -0.155487 5.58772e-20)
(29.9947 -0.156221 2.23674e-20)
(29.9949 -0.156963 -3.25399e-20)
(29.9952 -0.157715 -6.08291e-20)
(29.9955 -0.158475 3.97494e-20)
(29.9957 -0.159243 7.37053e-20)
(29.996 -0.160021 -3.00754e-20)
(29.9963 -0.160807 4.27001e-20)
(29.9966 -0.161601 -1.35263e-19)
(29.9969 -0.162404 3.99266e-20)
(29.9972 -0.163216 3.47445e-20)
(29.9975 -0.164036 -1.55188e-20)
(29.9978 -0.164864 -5.62773e-21)
(29.9981 -0.165701 3.3845e-20)
(29.9984 -0.166546 -1.38447e-20)
(29.9987 -0.167398 -2.98845e-20)
(29.9991 -0.168259 3.73183e-20)
(29.9994 -0.169128 -1.39689e-20)
(29.9998 -0.170005 5.29345e-20)
(30.0001 -0.170889 -4.82879e-20)
(30.0005 -0.17178 -4.88915e-23)
(30.0009 -0.172679 4.47665e-20)
(30.0012 -0.173586 2.40863e-20)
(30.0016 -0.174499 -4.76218e-20)
(30.002 -0.175419 -5.5858e-20)
(30.0024 -0.176346 3.14423e-20)
(30.0028 -0.177279 4.65253e-20)
(30.0032 -0.178218 -4.46759e-20)
(30.0036 -0.179164 -4.83328e-20)
(30.0041 -0.180115 5.19638e-20)
(30.0045 -0.181071 -3.99491e-20)
(30.0049 -0.182033 -1.55108e-20)
(30.0054 -0.183 7.63815e-20)
(30.0058 -0.183972 -4.30643e-20)
(30.0063 -0.184948 -1.38267e-20)
(30.0067 -0.185928 -6.80567e-20)
(30.0072 -0.186912 1.14359e-19)
(30.0077 -0.187898 3.80136e-20)
(30.0082 -0.188889 3.40613e-20)
(30.0087 -0.189883 1.75702e-20)
(30.0092 -0.190879 -1.64097e-19)
(30.0097 -0.191877 1.84044e-20)