/*--------------------------------*- C++ -*----------------------------------*\
  =========                 |
  \\      /  F ield         | OpenFOAM: The Open Source CFD Toolbox
   \\    /   O peration     | Website:  https://openfoam.org
    \\  /    A nd           | Version:  13
     \\/     M anipulation  |
\*---------------------------------------------------------------------------*/
FoamFile
{
    format      ascii;
    class       volScalarField;
    location    "0.4";
    object      p;
}
// * * * * * * * * * * * * * * * * * * * * * * * * * * * * * * * * * * * * * //

dimensions      [0 2 -2 0 0 0 0];

internalField   nonuniform List<scalar> 
68864
(
0.371716
0.370262
0.368647
0.366847
0.365037
0.363264
0.361491
0.359696
0.357884
0.356061
0.354227
0.352381
0.350521
0.348649
0.346764
0.344865
0.342952
0.341025
0.339083
0.337125
0.335152
0.333164
0.33116
0.32914
0.327103
0.325049
0.322977
0.320888
0.31878
0.316652
0.314505
0.312339
0.310152
0.307946
0.30572
0.303472
0.301203
0.298911
0.296595
0.294256
0.291893
0.289507
0.287097
0.284664
0.282206
0.279723
0.277213
0.274676
0.272111
0.26952
0.266903
0.264259
0.26159
0.258893
0.256167
0.253412
0.250628
0.247816
0.244977
0.242111
0.239218
0.236296
0.233344
0.230362
0.227353
0.224318
0.22126
0.218179
0.215072
0.211937
0.208771
0.205577
0.202361
0.199128
0.195881
0.192616
0.189329
0.186014
0.182674
0.179317
0.175952
0.172583
0.169209
0.165822
0.162415
0.158991
0.155557
0.152127
0.148707
0.145297
0.141888
0.138472
0.135049
0.131628
0.128221
0.12484
0.121485
0.118151
0.114827
0.111512
0.108211
0.104938
0.101703
0.098511
0.0953568
0.0922326
0.0891338
0.0860642
0.0830346
0.0800569
0.0771374
0.0742733
0.0714564
0.0686787
0.0659398
0.0632479
0.0606162
0.0580553
0.055567
0.0531437
0.0507736
0.048449
0.0461716
0.0439522
0.0418043
0.0397359
0.0377447
0.0358201
0.0339497
0.0321274
0.0303569
0.0286489
0.0270139
0.0254551
0.023966
0.0225348
0.0211517
0.019815
0.0185316
0.017311
0.0161573
0.0150652
0.0140235
0.0130223
0.0120597
0.0111425
0.0102789
0.00947085
0.00871064
0.00798578
0.00728765
0.00661742
0.00598384
0.00539472
0.0048484
0.00433323
0.0038356
0.00334906
0.00287821
0.00243435
0.0020256
0.00164929
0.00129353
0.000945849
0.000605885
0.000289533
3.99136e-05
0.636646
0.634944
0.632952
0.630742
0.628531
0.626354
0.624159
0.621925
0.619658
0.617366
0.615047
0.612699
0.610322
0.607916
0.605479
0.603011
0.600511
0.597979
0.595412
0.592812
0.590177
0.587507
0.5848
0.582056
0.579275
0.576455
0.573596
0.570696
0.567755
0.564772
0.561745
0.558675
0.55556
0.5524
0.549195
0.545942
0.542641
0.53929
0.535889
0.532436
0.528932
0.525376
0.521767
0.518105
0.514388
0.510615
0.506785
0.502895
0.498946
0.494938
0.490873
0.486748
0.482565
0.47832
0.474012
0.46964
0.465203
0.460703
0.456141
0.451518
0.446833
0.442083
0.437268
0.432385
0.427437
0.422427
0.417358
0.412231
0.407044
0.401792
0.396473
0.391088
0.385645
0.38015
0.374608
0.369017
0.36337
0.357662
0.351894
0.346075
0.340217
0.334329
0.328408
0.322448
0.31644
0.310385
0.304293
0.298182
0.292062
0.285935
0.279791
0.273623
0.267428
0.261219
0.255011
0.24882
0.242651
0.236497
0.23035
0.224207
0.218076
0.211973
0.205913
0.199905
0.193946
0.188028
0.182148
0.17631
0.170528
0.164819
0.159193
0.153649
0.14818
0.142778
0.137444
0.132187
0.127026
0.121975
0.117039
0.112212
0.10748
0.102835
0.0982796
0.0938266
0.0894946
0.0852959
0.08123
0.0772852
0.0734462
0.0697045
0.0660643
0.0625393
0.0591445
0.055886
0.0527571
0.0497427
0.0468289
0.0440121
0.0413001
0.0387056
0.0362354
0.0338841
0.0316368
0.0294789
0.0274061
0.0254251
0.0235468
0.0217743
0.0200981
0.0185007
0.016969
0.0155023
0.0141111
0.0128058
0.0115846
0.0104317
0.00932552
0.00825395
0.00722176
0.00624384
0.00533025
0.00447568
0.00365976
0.00286596
0.00208206
0.00136096
0.00054288
0.953012
0.950723
0.948055
0.945153
0.942247
0.939357
0.936424
0.933427
0.930377
0.92728
0.924133
0.920935
0.917685
0.914381
0.911024
0.907611
0.904143
0.900617
0.897033
0.893389
0.889686
0.885921
0.882094
0.878203
0.874249
0.870228
0.866142
0.861987
0.857763
0.853469
0.849102
0.844663
0.84015
0.835563
0.830899
0.826159
0.82134
0.816441
0.81146
0.806396
0.801248
0.796017
0.790699
0.785296
0.779805
0.774224
0.768552
0.762788
0.756931
0.75098
0.744937
0.7388
0.732569
0.72624
0.719812
0.713283
0.706655
0.699928
0.693104
0.686184
0.679166
0.672046
0.664822
0.657495
0.650066
0.642541
0.634924
0.627214
0.619408
0.611502
0.603492
0.595383
0.587182
0.5789
0.57054
0.562099
0.55357
0.544948
0.536236
0.527447
0.518595
0.509687
0.500723
0.491694
0.482593
0.473424
0.464201
0.454942
0.44566
0.436357
0.427025
0.417656
0.40825
0.398822
0.389392
0.379979
0.370588
0.361215
0.351852
0.342499
0.333165
0.323869
0.314632
0.305463
0.296362
0.287324
0.278345
0.269434
0.260607
0.251883
0.243275
0.234786
0.22641
0.218141
0.209979
0.201938
0.194038
0.186297
0.178723
0.17131
0.164046
0.156923
0.149943
0.143121
0.136478
0.130031
0.123781
0.117715
0.111816
0.106074
0.100493
0.0950886
0.0898802
0.0848755
0.0800672
0.0754368
0.0709663
0.0666498
0.0624963
0.0585219
0.0547361
0.0511329
0.0476926
0.0443943
0.0412295
0.0382055
0.0353367
0.0326297
0.030074
0.0276463
0.025325
0.0231043
0.0209946
0.0190099
0.0171521
0.0154036
0.0137372
0.0121329
0.0105896
0.00912126
0.00774041
0.00644269
0.00520688
0.00400097
0.00282245
0.00161815
0.000589417
1.21782
1.21499
1.21177
1.20837
1.20495
1.20153
1.19806
1.19451
1.19089
1.18722
1.18349
1.17969
1.17583
1.17191
1.16791
1.16385
1.15972
1.15551
1.15123
1.14688
1.14245
1.13795
1.13336
1.12869
1.12395
1.11912
1.1142
1.1092
1.1041
1.09892
1.09364
1.08827
1.08281
1.07724
1.07158
1.06582
1.05996
1.05399
1.04791
1.04173
1.03543
1.02903
1.02251
1.01588
1.00913
1.00227
0.995282
0.988175
0.980944
0.973589
0.96611
0.958506
0.950774
0.942912
0.934918
0.92679
0.91853
0.910139
0.901616
0.892962
0.884172
0.875244
0.866177
0.856972
0.847631
0.83816
0.82856
0.81883
0.808967
0.798966
0.788826
0.778553
0.768155
0.75764
0.747013
0.736268
0.725401
0.714406
0.703291
0.692068
0.680752
0.669349
0.657859
0.646273
0.634588
0.622809
0.610952
0.599038
0.587078
0.575075
0.563021
0.55091
0.538746
0.526547
0.514334
0.502128
0.489937
0.477755
0.465576
0.453402
0.441246
0.429131
0.417078
0.405102
0.393203
0.381376
0.36962
0.357945
0.34637
0.334919
0.323608
0.312442
0.301417
0.290526
0.279772
0.26917
0.258745
0.248517
0.238498
0.228683
0.219061
0.209621
0.200368
0.191322
0.182507
0.173941
0.165624
0.157544
0.149683
0.142031
0.134595
0.127395
0.12045
0.113768
0.107339
0.101142
0.0951568
0.0893814
0.0838285
0.0785158
0.0734508
0.0686221
0.0640048
0.0595763
0.0553306
0.05128
0.0474415
0.043819
0.0403941
0.0371354
0.0340175
0.0310368
0.0282099
0.0255555
0.0230734
0.0207381
0.0185115
0.0163666
0.014302
0.0123369
0.0104893
0.00875544
0.00710663
0.00550393
0.00392525
0.00236118
0.000833618
1.49008
1.48708
1.48365
1.48003
1.47639
1.47273
1.46899
1.46516
1.46125
1.45726
1.45319
1.44903
1.44479
1.44046
1.43605
1.43154
1.42694
1.42224
1.41745
1.41255
1.40756
1.40246
1.39726
1.39196
1.38654
1.38102
1.37538
1.36962
1.36375
1.35776
1.35164
1.34541
1.33904
1.33255
1.32593
1.31918
1.31229
1.30526
1.2981
1.29079
1.28334
1.27574
1.268
1.2601
1.25206
1.24386
1.2355
1.22698
1.21831
1.20947
1.20047
1.1913
1.18197
1.17247
1.1628
1.15295
1.14294
1.13275
1.12239
1.11185
1.10114
1.09026
1.07919
1.06795
1.05653
1.04494
1.03318
1.02124
1.00914
0.996855
0.984397
0.971768
0.958975
0.946025
0.932924
0.919669
0.906256
0.892683
0.878955
0.865086
0.851089
0.836974
0.82274
0.808382
0.793897
0.779295
0.76459
0.749803
0.734947
0.720026
0.705035
0.689971
0.67484
0.659662
0.644461
0.629259
0.614062
0.598868
0.583673
0.568483
0.553314
0.538193
0.523144
0.508181
0.493304
0.478511
0.463804
0.449197
0.434714
0.420382
0.406219
0.392229
0.378408
0.364752
0.351266
0.337972
0.324898
0.312067
0.299491
0.287162
0.27507
0.263207
0.251582
0.24022
0.229147
0.21838
0.207918
0.197747
0.187849
0.178218
0.168867
0.159816
0.151084
0.142675
0.134574
0.126761
0.11922
0.111954
0.104976
0.098301
0.0919299
0.0858455
0.0800226
0.0744435
0.0691086
0.0640315
0.0592235
0.0546778
0.0503677
0.0462606
0.0423376
0.0386038
0.0350791
0.0317758
0.0286806
0.0257555
0.0229581
0.0202662
0.0176884
0.0152502
0.0129669
0.0108229
0.00877499
0.0067757
0.00479925
0.00286067
0.000942289
1.74881
1.74534
1.74142
1.73733
1.73323
1.72909
1.72485
1.72051
1.71608
1.71156
1.70695
1.70224
1.69743
1.69252
1.68751
1.68239
1.67717
1.67184
1.66639
1.66083
1.65515
1.64936
1.64344
1.6374
1.63123
1.62494
1.61851
1.61195
1.60525
1.59841
1.59142
1.58429
1.57702
1.56959
1.56201
1.55428
1.54638
1.53833
1.5301
1.52171
1.51315
1.50442
1.49551
1.48642
1.47716
1.46771
1.45807
1.44825
1.43823
1.42802
1.41761
1.40701
1.3962
1.3852
1.374
1.36258
1.35096
1.33913
1.32709
1.31484
1.30238
1.28971
1.27683
1.26373
1.25042
1.2369
1.22316
1.20923
1.19508
1.18072
1.16615
1.15137
1.13639
1.12122
1.10586
1.09031
1.07457
1.05864
1.04252
1.02622
1.00977
0.993161
0.97641
0.959508
0.942453
0.925252
0.907923
0.890487
0.87296
0.855347
0.837647
0.819857
0.801985
0.784053
0.766086
0.748106
0.730123
0.712135
0.694143
0.676155
0.658191
0.640279
0.622444
0.6047
0.58705
0.569494
0.552038
0.534701
0.51751
0.500493
0.483668
0.467039
0.450603
0.43436
0.418322
0.402514
0.386965
0.371701
0.356729
0.342043
0.327633
0.313498
0.299652
0.286121
0.272933
0.260101
0.247623
0.235485
0.223673
0.212186
0.201039
0.190252
0.179839
0.169801
0.160125
0.150793
0.141795
0.133133
0.124818
0.116859
0.109252
0.10198
0.0950247
0.0883732
0.0820268
0.0759919
0.0702691
0.0648439
0.0596905
0.0547851
0.0501189
0.0456989
0.0415357
0.0376255
0.033942
0.0304455
0.0271033
0.0239071
0.020872
0.0180168
0.0153394
0.0128066
0.0103666
0.00797476
0.00562225
0.00332103
0.00109769
2.00066
1.99705
1.99295
1.98869
1.98442
1.98009
1.97565
1.97109
1.96643
1.96166
1.95679
1.9518
1.94669
1.94147
1.93613
1.93067
1.92508
1.91936
1.9135
1.90752
1.90139
1.89513
1.88872
1.88217
1.87547
1.86861
1.8616
1.85443
1.8471
1.8396
1.83193
1.82409
1.81607
1.80787
1.79949
1.79093
1.78218
1.77323
1.76409
1.75475
1.7452
1.73545
1.72549
1.71531
1.70493
1.69432
1.68349
1.67244
1.66115
1.64963
1.63788
1.6259
1.61368
1.60122
1.58852
1.57556
1.56236
1.54891
1.53521
1.52126
1.50706
1.49261
1.4779
1.46294
1.44771
1.43224
1.41651
1.40054
1.38432
1.36785
1.35112
1.33415
1.31693
1.29948
1.28181
1.26391
1.24579
1.22743
1.20884
1.19005
1.17106
1.1519
1.13256
1.11304
1.09333
1.07345
1.05341
1.03325
1.01297
0.992586
0.972096
0.951499
0.930804
0.910035
0.889219
0.868382
0.847534
0.826678
0.805815
0.784957
0.764125
0.74335
0.722657
0.702064
0.681575
0.661194
0.640931
0.620808
0.600854
0.581098
0.561556
0.542236
0.523138
0.504266
0.485637
0.467278
0.44922
0.431484
0.41408
0.397004
0.380249
0.363819
0.347731
0.332011
0.316685
0.301767
0.287254
0.273134
0.259398
0.246046
0.233092
0.220555
0.208449
0.196774
0.185519
0.17467
0.164214
0.154152
0.144491
0.135238
0.126391
0.117937
0.109861
0.102147
0.0947904
0.0877892
0.0811398
0.0748306
0.0688433
0.0631606
0.0577728
0.0526775
0.0478715
0.0433407
0.0390587
0.0349953
0.0311305
0.0274611
0.0239947
0.0207326
0.0176545
0.0147187
0.0118798
0.00910477
0.00640462
0.00376457
0.00127581
2.2524
2.24841
2.2439
2.23924
2.23457
2.22984
2.22497
2.21998
2.21487
2.20964
2.20429
2.19881
2.1932
2.18746
2.18159
2.17558
2.16943
2.16313
2.15669
2.15009
2.14334
2.13643
2.12936
2.12212
2.11472
2.10714
2.09938
2.09145
2.08333
2.07503
2.06653
2.05784
2.04894
2.03985
2.03055
2.02103
2.0113
2.00136
1.99119
1.98079
1.97016
1.95929
1.94819
1.93684
1.92525
1.91341
1.90132
1.88897
1.87635
1.86347
1.85032
1.83691
1.82323
1.80926
1.79502
1.7805
1.76568
1.75059
1.73521
1.71954
1.70359
1.68734
1.6708
1.65395
1.63682
1.6194
1.6017
1.58371
1.56543
1.54686
1.52799
1.50884
1.48941
1.46973
1.44978
1.42957
1.4091
1.38835
1.36735
1.34611
1.32465
1.30299
1.28112
1.25904
1.23674
1.21424
1.19157
1.16876
1.14581
1.12274
1.09954
1.07622
1.05279
1.02927
1.0057
0.982106
0.958495
0.934873
0.911244
0.88762
0.864027
0.840499
0.817062
0.793735
0.770526
0.747441
0.724493
0.701706
0.67911
0.656736
0.634602
0.612718
0.591087
0.569718
0.548628
0.527847
0.507403
0.487322
0.467614
0.448276
0.429307
0.41071
0.392505
0.374717
0.357374
0.340489
0.324062
0.308082
0.29254
0.277435
0.262782
0.2486
0.234907
0.221703
0.208979
0.196713
0.184893
0.173516
0.162592
0.152133
0.14214
0.132599
0.123486
0.114781
0.106473
0.0985633
0.0910532
0.0839371
0.0771971
0.07081
0.0647559
0.0590235
0.0536062
0.0484936
0.0436671
0.0391031
0.0347815
0.0306908
0.0268249
0.023172
0.0197071
0.016393
0.0131964
0.0100907
0.00709571
0.00414803
0.00144815
2.49659
2.49239
2.48763
2.48274
2.47785
2.47287
2.46774
2.46247
2.45707
2.45155
2.44588
2.44008
2.43413
2.42804
2.42179
2.41539
2.40883
2.40211
2.39522
2.38816
2.38093
2.37353
2.36594
2.35816
2.35019
2.34203
2.33367
2.32511
2.31634
2.30735
2.29815
2.28873
2.27908
2.26921
2.25909
2.24874
2.23815
2.22731
2.21621
2.20485
2.19323
2.18134
2.16918
2.15675
2.14404
2.13104
2.11776
2.10417
2.09029
2.07611
2.06163
2.04684
2.03174
2.01632
2.00058
1.98452
1.96813
1.95143
1.93439
1.91703
1.89934
1.88131
1.86295
1.84425
1.82521
1.80585
1.78617
1.76615
1.7458
1.72512
1.70411
1.68278
1.66113
1.63919
1.61694
1.59439
1.57154
1.54839
1.52495
1.50124
1.47728
1.45309
1.42865
1.40397
1.37905
1.35391
1.32858
1.30309
1.27744
1.25165
1.22571
1.19964
1.17344
1.14715
1.12081
1.09444
1.06804
1.04164
1.01522
0.988817
0.962452
0.93616
0.909973
0.883909
0.85798
0.832191
0.80656
0.781112
0.75588
0.730897
0.706185
0.681754
0.657611
0.633763
0.610232
0.587048
0.564243
0.541843
0.519861
0.498295
0.477143
0.456411
0.436118
0.416295
0.396969
0.378156
0.359855
0.342052
0.324737
0.307911
0.291591
0.275804
0.260566
0.245876
0.231716
0.218063
0.204903
0.192239
0.180089
0.168467
0.15737
0.146772
0.136644
0.12696
0.117719
0.108929
0.1006
0.0927193
0.0852584
0.0781814
0.0714632
0.0650964
0.0590837
0.0534222
0.0480937
0.0430668
0.0383097
0.0338009
0.0295293
0.0254845
0.0216471
0.017986
0.0144716
0.0110707
0.00780235
0.00454779
0.0016499
2.74425
2.73969
2.73455
2.72929
2.72403
2.71866
2.71313
2.70745
2.70162
2.69566
2.68954
2.68327
2.67683
2.67024
2.66348
2.65655
2.64944
2.64215
2.63468
2.62702
2.61917
2.61112
2.60287
2.59442
2.58575
2.57687
2.56777
2.55844
2.54888
2.53908
2.52904
2.51876
2.50822
2.49743
2.48638
2.47507
2.46348
2.45161
2.43946
2.42702
2.41428
2.40125
2.38792
2.37429
2.36033
2.34606
2.33147
2.31654
2.30129
2.2857
2.26977
2.2535
2.23688
2.2199
2.20257
2.18488
2.16683
2.14841
2.12963
2.11048
2.09096
2.07107
2.05081
2.03017
2.00916
1.98778
1.96603
1.94392
1.92144
1.89858
1.87537
1.85179
1.82787
1.80361
1.77901
1.75407
1.7288
1.70321
1.67729
1.65108
1.62459
1.59783
1.57081
1.54351
1.51596
1.48818
1.46018
1.432
1.40365
1.37514
1.34647
1.31766
1.28872
1.25969
1.2306
1.20148
1.17234
1.14319
1.11403
1.0849
1.05582
1.02682
0.997948
0.969215
0.940635
0.912216
0.883977
0.855949
0.828167
0.800665
0.773468
0.746586
0.720026
0.693797
0.667923
0.642438
0.617378
0.592769
0.568623
0.544937
0.521709
0.498947
0.476676
0.454928
0.433734
0.413106
0.393039
0.373516
0.354529
0.336084
0.318207
0.300923
0.284245
0.268165
0.252659
0.237702
0.22329
0.209435
0.196157
0.183465
0.171342
0.159754
0.148669
0.138074
0.127976
0.118392
0.109323
0.100742
0.0926047
0.0848726
0.0775291
0.0705809
0.0640392
0.0578976
0.052124
0.0466714
0.0414991
0.036587
0.0319328
0.0275344
0.0233754
0.0194203
0.0156317
0.0119626
0.00843366
0.00488361
0.00181394
2.98723
2.98239
2.97693
2.97136
2.9658
2.96012
2.95426
2.94823
2.94204
2.9357
2.9292
2.92252
2.91567
2.90864
2.90143
2.89403
2.88644
2.87865
2.87066
2.86247
2.85406
2.84543
2.83658
2.8275
2.81819
2.80865
2.79886
2.78882
2.77852
2.76796
2.75713
2.74604
2.73466
2.723
2.71106
2.69881
2.68627
2.67341
2.66024
2.64675
2.63294
2.6188
2.60432
2.5895
2.57433
2.55881
2.54292
2.52668
2.51006
2.49307
2.4757
2.45795
2.43981
2.42128
2.40236
2.38303
2.36331
2.34318
2.32264
2.30169
2.28033
2.25856
2.23638
2.21378
2.19077
2.16734
2.14351
2.11927
2.09463
2.06958
2.04413
2.01828
1.99204
1.96543
1.93844
1.91109
1.88337
1.85529
1.82687
1.79813
1.76907
1.73971
1.71006
1.68013
1.64992
1.61946
1.58877
1.55788
1.52681
1.49556
1.46415
1.43259
1.4009
1.36912
1.33728
1.3054
1.27352
1.24162
1.20974
1.17788
1.1461
1.11442
1.08289
1.05151
1.02031
0.989287
0.958476
0.927907
0.897619
0.867647
0.838014
0.80873
0.779802
0.751246
0.723087
0.695364
0.668115
0.641363
0.615117
0.589374
0.564135
0.539411
0.515233
0.491636
0.468647
0.446273
0.424504
0.403325
0.382735
0.362746
0.343386
0.324677
0.306623
0.289208
0.272409
0.25621
0.240615
0.22564
0.211299
0.197587
0.184477
0.171937
0.159942
0.148493
0.137604
0.127284
0.117514
0.108255
0.0994589
0.091098
0.0831724
0.0756981
0.0686812
0.0620981
0.0558977
0.0500243
0.0444425
0.0391462
0.0341447
0.0294378
0.0249998
0.0207804
0.0167314
0.0127966
0.00900997
0.00517971
0.00195805
3.23442
3.22922
3.22334
3.21738
3.21144
3.20535
3.19907
3.1926
3.18596
3.17916
3.17217
3.165
3.15764
3.15008
3.14232
3.13436
3.12618
3.11779
3.10918
3.10034
3.09127
3.08196
3.07241
3.0626
3.05255
3.04223
3.03164
3.02078
3.00963
2.9982
2.98648
2.97445
2.96213
2.94949
2.93653
2.92324
2.90962
2.89567
2.88137
2.86671
2.8517
2.83633
2.82058
2.80446
2.78795
2.77106
2.75377
2.73608
2.71798
2.69947
2.68054
2.66119
2.64142
2.62122
2.60058
2.5795
2.55798
2.53601
2.5136
2.49074
2.46743
2.44366
2.41945
2.39477
2.36964
2.34407
2.31804
2.29158
2.26467
2.23732
2.20953
2.18131
2.15266
2.1236
2.09414
2.06429
2.03404
2.0034
1.9724
1.94103
1.90933
1.87732
1.84499
1.81237
1.77945
1.74626
1.71284
1.6792
1.64536
1.61135
1.57718
1.54285
1.5084
1.47386
1.43927
1.40465
1.37002
1.33541
1.30081
1.26627
1.23182
1.19749
1.16334
1.12936
1.09558
1.06202
1.0287
0.995664
0.962942
0.930574
0.898581
0.866975
0.835765
0.80497
0.774621
0.744758
0.715416
0.686618
0.658369
0.630668
0.603519
0.576941
0.550966
0.525626
0.500944
0.476922
0.453549
0.430818
0.408732
0.387307
0.366566
0.346525
0.327181
0.308518
0.290519
0.273176
0.256496
0.24049
0.225161
0.210494
0.196462
0.183041
0.17022
0.158004
0.1464
0.135398
0.124969
0.115068
0.105659
0.0967319
0.0882958
0.0803616
0.0729171
0.0659184
0.0593054
0.0530289
0.0470704
0.0414384
0.0361445
0.0311764
0.0264901
0.02202
0.0177157
0.0135223
0.00949839
0.00541831
0.00208194
3.47992
3.47437
3.4681
3.46176
3.45544
3.44897
3.44227
3.43538
3.42831
3.42105
3.4136
3.40594
3.39807
3.39
3.3817
3.37318
3.36443
3.35545
3.34622
3.33675
3.32702
3.31703
3.30678
3.29625
3.28544
3.27435
3.26296
3.25127
3.23928
3.22697
3.21434
3.20139
3.18809
3.17446
3.16048
3.14614
3.13143
3.11635
3.1009
3.08506
3.06883
3.0522
3.03516
3.0177
2.99983
2.98153
2.9628
2.94363
2.92401
2.90394
2.88342
2.86243
2.84098
2.81905
2.79665
2.77377
2.7504
2.72654
2.7022
2.67737
2.65205
2.62624
2.59993
2.57311
2.54581
2.51802
2.48974
2.46099
2.43176
2.40204
2.37185
2.34118
2.31006
2.2785
2.24651
2.2141
2.18126
2.14801
2.11436
2.08033
2.04594
2.01122
1.97618
1.94081
1.90515
1.8692
1.833
1.79658
1.75996
1.72317
1.68622
1.64911
1.61189
1.57459
1.53724
1.49988
1.46252
1.4252
1.38791
1.3507
1.31361
1.27667
1.23993
1.20339
1.16709
1.13104
1.09527
1.05981
1.02472
0.990019
0.955733
0.921874
0.888457
0.855504
0.823047
0.791126
0.759774
0.729011
0.698842
0.669272
0.640306
0.611968
0.584287
0.557292
0.531001
0.505417
0.480532
0.456343
0.432854
0.410081
0.388041
0.366743
0.346186
0.326356
0.307244
0.288843
0.271155
0.254183
0.237922
0.222357
0.20747
0.193244
0.179673
0.166755
0.154482
0.142834
0.131777
0.121278
0.111315
0.101887
0.0929988
0.0846448
0.0767927
0.069389
0.0623793
0.0557318
0.0494444
0.0435292
0.037986
0.0327814
0.0278544
0.0231345
0.0185819
0.0141502
0.00992403
0.00562596
0.0022131
3.72977
3.72381
3.71708
3.71031
3.70356
3.69663
3.68946
3.68208
3.6745
3.66672
3.65873
3.65052
3.64207
3.6334
3.6245
3.61535
3.60595
3.59629
3.58636
3.57617
3.5657
3.55495
3.54391
3.53257
3.52092
3.50897
3.49669
3.48408
3.47114
3.45786
3.44422
3.43023
3.41588
3.40114
3.38603
3.37053
3.35463
3.33832
3.32161
3.30447
3.2869
3.26889
3.25044
3.23154
3.21219
3.19236
3.17207
3.15129
3.13003
3.10827
3.08602
3.06327
3.04001
3.01624
2.99194
2.96712
2.94178
2.9159
2.88951
2.86258
2.83512
2.80712
2.77858
2.7495
2.7199
2.68977
2.65912
2.62795
2.59626
2.56406
2.53134
2.49812
2.46442
2.43025
2.39562
2.36054
2.32501
2.28904
2.25265
2.21586
2.1787
2.1412
2.10336
2.06519
2.0267
1.98792
1.94889
1.90965
1.87021
1.8306
1.79083
1.75092
1.7109
1.67082
1.63071
1.5906
1.55053
1.5105
1.47055
1.43069
1.39099
1.35147
1.31218
1.27313
1.23436
1.19587
1.15771
1.1199
1.08251
1.04554
1.00904
0.973018
0.937483
0.902462
0.867989
0.834102
0.800833
0.768201
0.736216
0.704881
0.674205
0.64421
0.614923
0.586372
0.558574
0.531532
0.505243
0.479701
0.454911
0.430883
0.407633
0.38517
0.363495
0.342599
0.32247
0.303098
0.284478
0.266608
0.249486
0.233103
0.217446
0.202499
0.188249
0.174682
0.161784
0.149533
0.137903
0.126872
0.116425
0.106558
0.0972611
0.0885123
0.0802697
0.0724838
0.0651152
0.0581482
0.0515864
0.045432
0.0396644
0.0342314
0.0290657
0.0241053
0.0193285
0.0146958
0.0103091
0.00581839
0.00236028
3.98027
3.97389
3.96668
3.95946
3.95226
3.94487
3.93721
3.92932
3.92123
3.91291
3.90436
3.89557
3.88653
3.87725
3.86771
3.8579
3.84782
3.83746
3.82682
3.81588
3.80464
3.7931
3.78124
3.76905
3.75653
3.74367
3.73047
3.7169
3.70298
3.68868
3.67399
3.65892
3.64345
3.62757
3.61128
3.59456
3.57741
3.55982
3.54178
3.52328
3.50431
3.48487
3.46495
3.44453
3.42362
3.4022
3.38027
3.35781
3.33483
3.31131
3.28725
3.26265
3.23749
3.21178
3.18551
3.15867
3.13126
3.10328
3.07473
3.04561
3.01591
2.98563
2.95478
2.92334
2.89134
2.85878
2.82566
2.79198
2.75775
2.72296
2.68763
2.65176
2.61539
2.57853
2.54118
2.50335
2.46504
2.42628
2.38707
2.34746
2.30747
2.26712
2.22642
2.18538
2.14402
2.10238
2.06048
2.01838
1.97609
1.93363
1.89103
1.8483
1.80547
1.76261
1.71974
1.6769
1.63412
1.59141
1.54881
1.50634
1.46406
1.422
1.38021
1.33871
1.29751
1.25666
1.21617
1.17608
1.13646
1.09731
1.05868
1.02057
0.983007
0.946008
0.909609
0.873848
0.838757
0.804358
0.770657
0.73766
0.705374
0.673819
0.643023
0.613014
0.58381
0.555416
0.527824
0.501027
0.475025
0.44983
0.425458
0.401924
0.379229
0.357359
0.336297
0.316026
0.296541
0.277845
0.259941
0.242823
0.226475
0.210873
0.195996
0.181826
0.168348
0.15555
0.143412
0.131915
0.121042
0.110775
0.101095
0.0919706
0.0833629
0.0752334
0.0675563
0.0603219
0.0535271
0.0471572
0.041173
0.035514
0.0301194
0.0249432
0.0199803
0.0151879
0.0106731
0.00600314
0.00251605
4.23524
4.22838
4.22065
4.21293
4.20523
4.19732
4.18912
4.18067
4.17199
4.16308
4.15391
4.14448
4.13479
4.12483
4.11458
4.10405
4.09323
4.0821
4.07066
4.0589
4.04682
4.0344
4.02163
4.00852
3.99504
3.9812
3.96698
3.95237
3.93736
3.92195
3.90612
3.88987
3.87318
3.85606
3.83848
3.82044
3.80194
3.78295
3.76347
3.7435
3.72301
3.70201
3.68049
3.65844
3.63585
3.61271
3.58901
3.56474
3.5399
3.51449
3.48849
3.4619
3.43472
3.40693
3.37854
3.34954
3.31992
3.2897
3.25885
3.2274
3.19532
3.16262
3.1293
3.09537
3.06084
3.0257
2.98997
2.95365
2.91673
2.87923
2.84116
2.80253
2.76336
2.72368
2.68349
2.64279
2.6016
2.55993
2.51782
2.47529
2.43237
2.38909
2.34545
2.30146
2.25717
2.21259
2.16777
2.12276
2.07757
2.03223
1.98676
1.94118
1.89554
1.84988
1.80425
1.75868
1.7132
1.66783
1.6226
1.57755
1.53272
1.48817
1.44392
1.40002
1.35647
1.3133
1.27055
1.22826
1.18648
1.14524
1.10456
1.06446
1.02496
0.986071
0.94784
0.910304
0.873495
0.837433
0.802123
0.767566
0.733771
0.700757
0.668556
0.637197
0.606697
0.577055
0.548261
0.520303
0.493183
0.466916
0.441523
0.417019
0.393398
0.370641
0.348721
0.327626
0.307354
0.287915
0.269316
0.251543
0.234572
0.218371
0.202915
0.188192
0.174196
0.160917
0.148338
0.136433
0.125174
0.114537
0.104497
0.0950265
0.0860947
0.077672
0.0697369
0.0622754
0.0552716
0.0486956
0.0424993
0.0366254
0.0310271
0.0256728
0.0205646
0.0156444
0.011017
0.00617246
0.00266133
4.49251
4.48516
4.47687
4.46862
4.4604
4.45194
4.44316
4.43412
4.42483
4.41528
4.40546
4.39536
4.38497
4.37429
4.36331
4.35201
4.34039
4.32845
4.31617
4.30354
4.29056
4.27721
4.26349
4.2494
4.23491
4.22002
4.20472
4.189
4.17285
4.15625
4.13921
4.12171
4.10374
4.08529
4.06635
4.04691
4.02697
4.0065
3.9855
3.96396
3.94187
3.91922
3.89601
3.87222
3.84785
3.82288
3.79731
3.77113
3.74433
3.71691
3.68886
3.66017
3.63085
3.60087
3.57024
3.53896
3.50702
3.47443
3.44117
3.40725
3.37267
3.33743
3.30154
3.26499
3.2278
3.18997
3.15151
3.11242
3.0727
3.03237
2.99145
2.94995
2.90788
2.86527
2.82213
2.77847
2.7343
2.68965
2.64454
2.59901
2.55309
2.5068
2.46015
2.41317
2.36588
2.31832
2.27055
2.22258
2.17447
2.12622
2.07786
2.02943
1.98096
1.93252
1.88413
1.83585
1.7877
1.73969
1.69187
1.64427
1.59695
1.54995
1.50332
1.45706
1.41122
1.36582
1.32088
1.27647
1.23262
1.18937
1.14674
1.10474
1.06339
1.02272
0.982758
0.943551
0.905131
0.867512
0.830696
0.794682
0.759479
0.725112
0.691614
0.659013
0.627323
0.596535
0.566632
0.537606
0.509463
0.482225
0.455912
0.430533
0.406072
0.382503
0.359801
0.337958
0.316983
0.296889
0.277673
0.259313
0.241775
0.225024
0.209043
0.193829
0.179381
0.165689
0.152723
0.14045
0.128834
0.117853
0.107485
0.0977114
0.0885046
0.0798367
0.0716819
0.064017
0.0568154
0.0500401
0.0436443
0.0375807
0.031815
0.0263216
0.0210984
0.0160655
0.0113272
0.00631202
0.00278078
4.75444
4.74654
4.73765
4.72882
4.72003
4.71096
4.70156
4.69186
4.68191
4.67167
4.66114
4.65031
4.63916
4.6277
4.6159
4.60377
4.5913
4.57847
4.56527
4.5517
4.53774
4.52339
4.50864
4.49347
4.47788
4.46186
4.44539
4.42847
4.41108
4.39321
4.37485
4.356
4.33664
4.31676
4.29635
4.2754
4.2539
4.23183
4.20918
4.18596
4.16214
4.13772
4.11269
4.08703
4.06075
4.03382
4.00624
3.97801
3.94911
3.91953
3.88929
3.85835
3.82673
3.79442
3.76141
3.72769
3.69328
3.65816
3.62233
3.5858
3.54857
3.51064
3.47202
3.4327
3.3927
3.35203
3.31068
3.26868
3.22603
3.18274
3.13883
3.09431
3.04922
3.00356
2.95735
2.9106
2.86335
2.8156
2.7674
2.71878
2.66976
2.62037
2.57064
2.52059
2.47024
2.41965
2.36886
2.31791
2.26683
2.21564
2.16438
2.11308
2.06178
2.01055
1.95942
1.90844
1.85762
1.80701
1.75663
1.70653
1.65677
1.60738
1.55841
1.50988
1.46181
1.41424
1.36721
1.32076
1.27493
1.22976
1.18527
1.14146
1.09837
1.056
1.01442
0.97365
0.933725
0.894653
0.856433
0.819064
0.782559
0.746948
0.712264
0.67853
0.64575
0.61391
0.582994
0.552997
0.523933
0.495825
0.468689
0.44252
0.417298
0.392993
0.369588
0.347084
0.325493
0.304822
0.285058
0.266167
0.248112
0.230867
0.214425
0.198789
0.183955
0.169901
0.156589
0.143977
0.132035
0.120745
0.110094
0.100064
0.0906287
0.081752
0.0734009
0.0655455
0.0581554
0.0511953
0.0446252
0.0384064
0.0325101
0.0269062
0.0215828
0.0164388
0.0115883
0.00641235
0.0028736
5.01982
5.01135
5.00181
4.99236
4.98296
4.97326
4.96318
4.9528
4.94213
4.93117
4.91988
4.90826
4.89631
4.88401
4.87135
4.85833
4.84494
4.83116
4.81699
4.80241
4.78742
4.772
4.75614
4.73984
4.72308
4.70584
4.68813
4.66992
4.65121
4.63198
4.61222
4.59193
4.57108
4.54968
4.5277
4.50513
4.48197
4.4582
4.4338
4.40878
4.38312
4.35681
4.32984
4.3022
4.27387
4.24486
4.21515
4.18473
4.1536
4.12174
4.08916
4.05584
4.02179
3.987
3.95146
3.91518
3.87814
3.84035
3.80181
3.76253
3.72251
3.68174
3.64024
3.59802
3.55507
3.51141
3.46705
3.422
3.37628
3.3299
3.28288
3.23523
3.18698
3.13815
3.08876
3.03884
2.98839
2.93746
2.88608
2.83427
2.78208
2.72954
2.67666
2.62347
2.57003
2.51636
2.46251
2.40854
2.35447
2.30033
2.24616
2.19199
2.13787
2.08387
2.03001
1.97636
1.92292
1.86974
1.81685
1.76431
1.71216
1.66044
1.6092
1.55847
1.50826
1.45861
1.40956
1.36116
1.31345
1.26646
1.2202
1.17469
1.12995
1.08601
1.04291
1.00068
0.95936
0.918939
0.879418
0.840801
0.803106
0.766363
0.730601
0.695835
0.662061
0.629264
0.597432
0.566566
0.536683
0.507801
0.479927
0.453049
0.42714
0.402179
0.378156
0.355077
0.332949
0.31177
0.291514
0.272144
0.25363
0.235955
0.219119
0.203125
0.187957
0.173582
0.159955
0.147036
0.134803
0.123248
0.112362
0.102122
0.092492
0.0834291
0.0748956
0.0668613
0.0592994
0.0521802
0.045469
0.0391291
0.0331287
0.0274282
0.022007
0.0167506
0.0117946
0.00647575
0.00295295
5.29007
5.28097
5.27074
5.26062
5.25055
5.24016
5.22937
5.21824
5.20681
5.19505
5.18295
5.17049
5.15766
5.14446
5.13088
5.1169
5.10252
5.08773
5.0725
5.05684
5.04072
5.02415
5.0071
4.98957
4.97155
4.95301
4.93395
4.91436
4.89423
4.87353
4.85227
4.83042
4.80798
4.78493
4.76127
4.73696
4.71202
4.68641
4.66015
4.6332
4.60556
4.57722
4.54817
4.5184
4.48789
4.45664
4.42465
4.39189
4.35837
4.32407
4.289
4.25314
4.2165
4.17907
4.14084
4.10182
4.06199
4.02137
3.97996
3.93776
3.89478
3.85102
3.80649
3.76119
3.71513
3.66832
3.6208
3.57256
3.52363
3.47402
3.42374
3.37282
3.32129
3.26916
3.21648
3.16326
3.10952
3.0553
3.00063
2.94556
2.89011
2.83432
2.77823
2.72186
2.66526
2.60846
2.55153
2.49451
2.43742
2.38032
2.32323
2.2662
2.20927
2.1525
2.09595
2.03965
1.98363
1.92793
1.87259
1.81765
1.76317
1.7092
1.65577
1.6029
1.55063
1.49899
1.44802
1.39777
1.34827
1.29955
1.25163
1.20452
1.15824
1.11283
1.06832
1.02475
0.982133
0.940466
0.899753
0.859998
0.821224
0.783457
0.746719
0.711018
0.676346
0.642689
0.610041
0.578406
0.547799
0.518231
0.4897
0.462188
0.435674
0.410141
0.385584
0.362008
0.339412
0.317782
0.297088
0.277296
0.258385
0.240346
0.223181
0.206881
0.19142
0.176756
0.162844
0.149655
0.137177
0.125405
0.114327
0.10391
0.0941078
0.0848728
0.0761698
0.067975
0.060268
0.053022
0.0462015
0.0397648
0.033673
0.0278789
0.0223604
0.0169976
0.0119545
0.0065144
0.00303573
5.56454
5.55478
5.5438
5.53298
5.52221
5.51109
5.49953
5.4876
5.47536
5.46276
5.44978
5.43642
5.42266
5.40851
5.39393
5.37894
5.3635
5.34762
5.33127
5.31444
5.29714
5.27933
5.26101
5.24218
5.2228
5.20287
5.18238
5.16131
5.13965
5.11739
5.09452
5.07102
5.04687
5.02207
4.9966
4.97045
4.9436
4.91604
4.88777
4.85877
4.82902
4.79851
4.76724
4.7352
4.70237
4.66874
4.63432
4.59907
4.56301
4.52612
4.4884
4.44985
4.41046
4.37023
4.32915
4.28722
4.24445
4.20084
4.15639
4.11112
4.06502
4.01811
3.97038
3.92184
3.87252
3.82243
3.77159
3.72002
3.66774
3.61475
3.56108
3.50676
3.45182
3.39629
3.3402
3.28358
3.22645
3.16885
3.11081
3.05239
2.99361
2.93453
2.87517
2.81556
2.75576
2.69581
2.63576
2.57567
2.51557
2.4555
2.3955
2.33562
2.2759
2.21641
2.15719