/*--------------------------------*- C++ -*----------------------------------*\
  =========                 |
  \\      /  F ield         | OpenFOAM: The Open Source CFD Toolbox
   \\    /   O peration     | Website:  https://openfoam.org
    \\  /    A nd           | Version:  13
     \\/     M anipulation  |
\*---------------------------------------------------------------------------*/
FoamFile
{
    format      ascii;
    class       surfaceScalarField;
    location    "0.4";
    object      phi;
}
// * * * * * * * * * * * * * * * * * * * * * * * * * * * * * * * * * * * * * //

dimensions      [0 3 -1 0 0 0 0];

internalField   nonuniform List<scalar> 
137229
(
14.3657
-0.000429072
-14.3685
14.3628
-0.000438395
14.3599
-0.000448061
14.357
-0.000457948
14.354
-0.000468132
14.3509
-0.000478635
14.3477
-0.000489389
14.3445
-0.000500485
14.3413
-0.000511872
14.3379
-0.0005236
14.3345
-0.000535653
14.3311
-0.000548129
14.3276
-0.000560909
14.324
-0.000574079
14.3203
-0.00058764
14.3166
-0.000601513
14.3128
-0.000615838
14.3089
-0.000630577
14.3049
-0.000645718
14.3009
-0.000661334
14.2967
-0.000677376
14.2925
-0.00069389
14.2883
-0.000710893
14.2839
-0.000728373
14.2794
-0.000746347
14.2749
-0.000764828
14.2703
-0.000783833
14.2655
-0.000803355
14.2607
-0.000823426
14.2558
-0.000844085
14.2508
-0.000865305
14.2457
-0.000887206
14.2405
-0.000909683
14.2351
-0.000932749
14.2297
-0.000956511
14.2242
-0.000980815
14.2185
-0.00100582
14.2128
-0.00103152
14.2069
-0.00105786
14.2009
-0.001085
14.1948
-0.00111285
14.1886
-0.0011415
14.1822
-0.00117091
14.1758
-0.001201
14.1692
-0.00123192
14.1624
-0.00126353
14.1555
-0.00129596
14.1485
-0.00132924
14.1414
-0.00136346
14.1341
-0.00139852
14.1266
-0.00143451
14.119
-0.00147133
14.1113
-0.00150899
14.1033
-0.00154747
14.0953
-0.00158685
14.087
-0.0016272
14.0786
-0.00166853
14.0701
-0.00171089
14.0613
-0.00175415
14.0524
-0.00179832
14.0433
-0.00184339
14.034
-0.00188929
14.0246
-0.00193625
14.0149
-0.00198421
14.005
-0.00203331
13.995
-0.00208349
13.9847
-0.00213454
13.9742
-0.00218636
13.9635
-0.00223891
13.9526
-0.0022923
13.9415
-0.00234676
13.9301
-0.00240242
13.9186
-0.0024593
13.9067
-0.00251714
13.8947
-0.00257553
13.8823
-0.00263432
13.8698
-0.0026937
13.857
-0.0027539
13.8439
-0.00281534
13.8305
-0.00287799
13.8169
-0.00294148
13.803
-0.00300529
13.7888
-0.00306912
13.7743
-0.00313301
13.7595
-0.00319747
13.7444
-0.00326287
13.729
-0.00332936
13.7133
-0.00339644
13.6972
-0.00346354
13.6809
-0.00353
13.6641
-0.00359592
13.6471
-0.00366175
13.6297
-0.00372797
13.6119
-0.00379491
13.5938
-0.00386206
13.5753
-0.00392872
13.5564
-0.00399416
13.5371
-0.00405823
13.5174
-0.0041212
13.4973
-0.00418368
13.4767
-0.00424599
13.4558
-0.00430784
13.4344
-0.0043685
13.4126
-0.00442721
13.3903
-0.0044835
13.3676
-0.0045376
13.3443
-0.00458994
13.3206
-0.00464099
13.2964
-0.00469062
13.2717
-0.00473807
13.2465
-0.00478248
13.2207
-0.00482312
13.1944
-0.00485987
13.1676
-0.00489327
13.1402
-0.0049239
13.1122
-0.00495208
13.0836
-0.0049772
13.0544
-0.00499819
13.0246
-0.00501387
12.9942
-0.00502356
12.9631
-0.00502746
12.9314
-0.00502642
12.899
-0.00502116
12.8659
-0.00501178
12.8321
-0.00499738
12.7976
-0.00497652
12.7624
-0.00494783
12.7264
-0.00491079
12.6897
-0.0048659
12.6522
-0.00481409
12.6138
-0.00475612
12.5747
-0.00469169
12.5347
-0.00461956
12.4939
-0.00453819
12.4522
-0.00444623
12.4096
-0.00434361
12.3661
-0.00423113
12.3216
-0.00410987
12.2762
-0.00397997
12.2298
-0.00384045
12.1824
-0.00368949
12.134
-0.00352553
12.0846
-0.00334813
12.0341
-0.00315821
11.9825
-0.00295702
11.9298
-0.00274484
11.8759
-0.00252036
11.8209
-0.0022813
11.7647
-0.00202589
11.7073
-0.00175391
11.6486
-0.00146679
11.5886
-0.00116611
11.5274
-0.000851999
11.4648
-0.000522373
11.4008
-0.000174076
11.3355
0.00019512
11.2687
0.000584936
11.2004
0.000993276
11.1307
0.0014177
11.0594
0.00185841
10.9866
0.00231817
10.9122
0.00280143
10.8361
0.00331118
10.7584
0.0038473
10.679
0.00440687
10.5978
0.00498627
0.00558353
13.6793
0.00212924
-13.6819
13.6767
0.00217022
13.674
0.00221197
13.6713
0.00225452
13.6686
0.00229785
13.6657
0.00234199
13.6629
0.00238697
13.6599
0.00243281
13.6569
0.00247952
13.6539
0.00252706
13.6508
0.0025755
13.6476
0.00262484
13.6444
0.00267511
13.6411
0.00272627
13.6377
0.00277843
13.6343
0.00283158
13.6308
0.00288573
13.6272
0.00294087
13.6236
0.00299704
13.6198
0.00305427
13.6161
0.00311255
13.6122
0.00317191
13.6082
0.00323239
13.6042
0.00329396
13.6001
0.00335676
13.5959
0.00342065
13.5917
0.00348583
13.5873
0.0035522
13.5829
0.00361983
13.5783
0.00368872
13.5737
0.0037589
13.569
0.00383037
13.5642
0.00390318
13.5593
0.0039774
13.5543
0.004053
13.5491
0.00413007
13.5439
0.00420867
13.5386
0.00428872
13.5332
0.0043703
13.5276
0.00445344
13.522
0.00453811
13.5162
0.00462443
13.5103
0.00471242
13.5043
0.00480213
13.4982
0.00489362
13.492
0.00498695
13.4856
0.00508212
13.4791
0.00517911
13.4724
0.00527799
13.4657
0.00537878
13.4587
0.00548154
13.4517
0.0055864
13.4445
0.00569348
13.4371
0.00580276
13.4296
0.00591433
13.422
0.00602811
13.4142
0.00614414
13.4062
0.00626254
13.3981
0.00638336
13.3898
0.00650679
13.3813
0.006633
13.3726
0.00676195
13.3638
0.00689366
13.3548
0.00702809
13.3456
0.00716528
13.3362
0.00730535
13.3266
0.00744856
13.3168
0.0075952
13.3068
0.00774542
13.2967
0.00789913
13.2862
0.00805619
13.2756
0.00821654
13.2648
0.00838026
13.2537
0.00854778
13.2424
0.00871956
13.2309
0.00889593
13.2191
0.00907679
13.2071
0.00926195
13.1948
0.00945115
13.1823
0.00964447
13.1695
0.00984248
13.1565
0.0100458
13.1432
0.0102549
13.1296
0.0104698
13.1157
0.0106902
13.1015
0.0109157
13.087
0.0111464
13.0722
0.0113829
13.0572
0.011626
13.0417
0.0118764
13.026
0.0121343
13.01
0.0123993
12.9936
0.0126711
12.9768
0.0129495
12.9597
0.0132351
12.9423
0.0135289
12.9244
0.0138316
12.9062
0.0141438
12.8876
0.0144654
12.8687
0.0147958
12.8493
0.015135
12.8295
0.0154834
12.8093
0.0158419
12.7886
0.0162114
12.7676
0.0165928
12.746
0.016986
12.7241
0.0173907
12.7016
0.0178069
12.6787
0.0182347
12.6553
0.0186752
12.6314
0.0191294
12.6069
0.0195983
12.582
0.0200823
12.5565
0.0205812
12.5305
0.0210948
12.5039
0.0216228
12.4768
0.0221662
12.4491
0.0227262
12.4207
0.0233044
12.3918
0.0239017
12.3623
0.0245183
12.3321
0.0251539
12.3013
0.0258078
12.2698
0.0264803
12.2376
0.0271726
12.2047
0.0278863
12.1712
0.0286233
12.1369
0.0293845
12.1018
0.03017
12.066
0.0309791
12.0295
0.0318114
11.9921
0.0326675
11.9539
0.0335488
11.915
0.0344577
11.8751
0.0353958
11.8344
0.0363637
11.7928
0.0373611
11.7503
0.0383876
11.7069
0.039443
11.6625
0.0405288
11.6172
0.0416474
11.5709
0.0428009
11.5235
0.0439904
11.4751
0.0452156
11.4257
0.0464758
11.3752
0.0477711
11.3236
0.0491031
11.2708
0.0504747
11.2169
0.0518884
11.1618
0.0533452
11.1055
0.0548445
11.0479
0.0563854
10.9891
0.0579682
10.929
0.0595953
10.8676
0.0612703
10.8048
0.0629963
10.7406
0.0647742
10.675
0.0666028
10.6079
0.0684808
10.5393
0.0704087
10.4693
0.0723898
10.3976
0.0744289
10.3244
0.0765298
10.2496
0.0786936
10.1731
0.0809184
10.0949
0.0832032
0.085544
13.0211
0.00446521
-13.0234
13.0187
0.00455288
13.0163
0.00464228
13.0138
0.00473345
13.0113
0.00482645
13.0087
0.00492127
13.006
0.00501801
13.0034
0.00511673
13.0006
0.00521737
12.9978
0.00532004
12.995
0.00542474
12.9921
0.00553154
12.9891
0.00564042
12.9861
0.00575154
12.983
0.00586484
12.9799
0.00598044
12.9766
0.00609839
12.9734
0.00621865
12.97
0.00634133
12.9666
0.00646649
12.9631
0.00659409
12.9596
0.00672433
12.9559
0.0068571
12.9522
0.00699259
12.9485
0.00713077
12.9446
0.00727177
12.9407
0.00741557
12.9367
0.00756234
12.9326
0.00771203
12.9284
0.00786475
12.9242
0.00802051
12.9198
0.00817944
12.9154
0.00834155
12.9108
0.00850695
12.9062
0.00867573
12.9015
0.00884793
12.8967
0.00902371
12.8918
0.00920301
12.8868
0.00938599
12.8816
0.00957269
12.8764
0.00976315
12.8711
0.00995753
12.8656
0.0101559
12.8601
0.0103583
12.8544
0.010565
12.8486
0.0107759
12.8427
0.0109912
12.8367
0.0112109
12.8305
0.0114352
12.8242
0.0116641
12.8178
0.0118977
12.8113
0.0121362
12.8046
0.0123799
12.7978
0.0126286
12.7908
0.0128827
12.7837
0.013142
12.7764
0.0134067
12.769
0.013677
12.7614
0.0139531
12.7537
0.0142351
12.7458
0.0145233
12.7377
0.0148178
12.7295
0.0151187
12.7211
0.0154258
12.7126
0.0157395
12.7038
0.0160599
12.6949
0.0163874
12.6857
0.0167223
12.6764
0.0170649
12.6669
0.0174152
12.6572
0.017773
12.6473
0.0181385
12.6371
0.0185119
12.6268
0.0188937
12.6162
0.0192844
12.6054
0.0196845
12.5944
0.0200939
12.5832
0.0205126
12.5717
0.0209404
12.5599
0.0213775
12.548
0.0218248
12.5357
0.0222828
12.5232
0.0227522
12.5105
0.0232331
12.4974
0.0237252
12.4841
0.0242284
12.4705
0.024743
12.4566
0.0252695
12.4424
0.0258091
12.428
0.0263625
12.4132
0.0269301
12.398
0.0275116
12.3826
0.0281067
12.3668
0.0287156
12.3507
0.029339
12.3343
0.0299781
12.3175
0.0306339
12.3003
0.0313069
12.2828
0.0319971
12.2649
0.0327044
12.2466
0.0334288
12.2279
0.0341709
12.2088
0.0349318
12.1893
0.0357128
12.1694
0.0365148
12.149
0.0373379
12.1282
0.0381821
12.107
0.0390475
12.0853
0.0399345
12.0631
0.0408444
12.0405
0.0417785
12.0174
0.042738
11.9937
0.0437236
11.9696
0.0447354
11.9449
0.0457732
11.9197
0.0468373
11.8939
0.0479286
11.8676
0.0490489
11.8407
0.0501999
11.8132
0.051383
11.7851
0.0525985
11.7564
0.0538463
11.7271
0.0551263
11.6972
0.056439
11.6665
0.0577858
11.6353
0.059169
11.6033
0.0605906
11.5706
0.0620519
11.5372
0.0635532
11.5031
0.0650942
11.4683
0.0666749
11.4326
0.0682964
11.3962
0.0699607
11.359
0.0716705
11.321
0.0734276
11.2821
0.0752333
11.2424
0.0770873
11.2018
0.0789895
11.1603
0.0809407
11.1179
0.082943
11.0745
0.0849992
11.0302
0.0871119
10.9849
0.0892825
10.9386
0.091511
10.8913
0.0937971
10.8429
0.0961418
10.7935
0.0985474
10.7429
0.101018
10.6913
0.103556
10.6384
0.106162
10.5845
0.108838
10.5293
0.111582
10.4728
0.114395
10.4151
0.117281
10.3562
0.120244
10.2959
0.123288
10.2342
0.126415
10.1712
0.129624
10.1068
0.132913
10.0409
0.136285
9.97356
0.139743
9.90469
0.143294
9.83428
0.146942
9.76229
0.150689
9.68867
0.154534
9.6134
0.158475
0.162515
12.3967
0.00660141
-12.3989
12.3945
0.00673247
12.3923
0.00686614
12.3901
0.0070026
12.3877
0.00714181
12.3854
0.00728385
12.383
0.0074288
12.3805
0.00757672
12.378
0.00772767
12.3754
0.00788173
12.3728
0.00803887
12.3702
0.00819925
12.3674
0.00836288
12.3646
0.00852987
12.3618
0.00870026
12.3589
0.00887423
12.356
0.00905171
12.353
0.00923287
12.3499
0.00941769
12.3467
0.00960632
12.3435
0.00979886
12.3403
0.00999527
12.3369
0.0101958
12.3335
0.0104004
12.33
0.0106092
12.3265
0.0108224
12.3229
0.0110399
12.3192
0.0112619
12.3154
0.0114886
12.3115
0.0117199
12.3076
0.011956
12.3036
0.0121969
12.2995
0.0124428
12.2953
0.0126938
12.291
0.0129501
12.2867
0.0132117
12.2822
0.0134788
12.2776
0.0137514
12.273
0.0140297
12.2683
0.0143138
12.2634
0.0146038
12.2585
0.0148998
12.2534
0.015202
12.2483
0.0155106
12.243
0.0158257
12.2376
0.0161475
12.2322
0.016476
12.2266
0.0168115
12.2208
0.017154
12.215
0.0175037
12.209
0.0178608
12.203
0.0182256
12.1967
0.0185981
12.1904
0.0189787
12.1839
0.0193673
12.1773
0.0197642
12.1705
0.0201696
12.1636
0.0205836
12.1566
0.0210066
12.1494
0.0214387
12.142
0.0218803
12.1345
0.0223315
12.1268
0.0227925
12.119
0.0232633
12.111
0.0237444
12.1028
0.0242358
12.0944
0.0247382
12.0859
0.0252518
12.0772
0.025777
12.0683
0.0263138
12.0592
0.0268624
12.0499
0.0274229
12.0404
0.0279955
12.0308
0.028581
12.0209
0.02918
12.0107
0.0297929
12.0004
0.0304199
11.9899
0.031061
11.9791
0.031716
11.9681
0.0323856
11.9568
0.0330703
11.9454
0.0337712
11.9336
0.0344888
11.9216
0.0352235
11.9094
0.0359749
11.8969
0.0367433
11.8841
0.0375289
11.871
0.0383326
11.8577
0.0391556
11.844
0.0399987
11.8301
0.0408624
11.8159
0.0417466
11.8013
0.0426512
11.7865
0.0435765
11.7713
0.0445234
11.7558
0.0454933
11.7399
0.0464873
11.7237
0.0475062
11.7072
0.04855
11.6902
0.0496187
11.673
0.0507127
11.6553
0.0518325
11.6372
0.0529799
11.6188
0.054156
11.6
0.055362
11.5807
0.0565982
11.561
0.0578648
11.5409
0.0591621
11.5203
0.0604906
11.4993
0.061852
11.4779
0.0632478
11.4559
0.0646797
11.4335
0.0661483
11.4106
0.0676539
11.3872
0.0691966
11.3632
0.0707769
11.3387
0.0723961
11.3137
0.0740565
11.2882
0.0757598
11.2621
0.0775078
11.2354
0.0793011
11.2081
0.0811396
11.1802
0.0830235
11.1516
0.0849538
11.1225
0.0869325
11.0927
0.088962
11.0623
0.0910448
11.0311
0.0931824
10.9993
0.0953752
10.9668
0.0976233
10.9335
0.0999271
10.8995
0.102288
10.8648
0.104709
10.8293
0.107194
10.7929
0.109743
10.7558
0.112359
10.7179
0.115041
10.6791
0.11779
10.6394
0.120608
10.5988
0.123498
10.5574
0.126462
10.515
0.129503
10.4716
0.132623
10.4273
0.135823
10.382
0.139102
10.3357
0.142463
10.2883
0.145909
10.2399
0.149444
10.1904
0.153072
10.1398
0.156793
10.088
0.160608
10.0351
0.164516
9.98094
0.168522
9.92559
0.172629
9.869
0.176842
9.81112
0.181166
9.75193
0.185602
9.69141
0.190149
9.62951
0.194806
9.56622
0.199578
9.50149
0.20447
9.4353
0.209489
9.3676
0.21464
9.29836
0.219925
9.22755
0.225343
9.15514
0.230893
0.236578
11.8011
0.00855854
-11.803
11.7991
0.00872983
11.7971
0.00890471
11.795
0.00908317
11.7929
0.00926534
11.7907
0.00945123
11.7885
0.009641
11.7862
0.00983475
11.7839
0.0100325
11.7816
0.0102343
11.7792
0.0104403
11.7767
0.0106506
11.7742
0.0108652
11.7716
0.0110842
11.769
0.0113079
11.7664
0.0115362
11.7637
0.0117693
11.7609
0.0120071
11.7581
0.01225
11.7552
0.0124979
11.7522
0.012751
11.7492
0.0130093
11.7461
0.013273
11.743
0.0135423
11.7398
0.0138171
11.7365
0.0140978
11.7331
0.0143843
11.7297
0.0146768
11.7262
0.0149755
11.7227
0.0152804
11.719
0.0155917
11.7153
0.0159094
11.7115
0.0162339
11.7077
0.0165652
11.7037
0.0169036
11.6997
0.017249
11.6956
0.0176018
11.6914
0.017962
11.6871
0.0183299
11.6827
0.0187054
11.6782
0.0190889
11.6736
0.0194805
11.6689
0.0198804
11.6641
0.0202889
11.6593
0.0207061
11.6543
0.0211322
11.6492
0.0215673
11.644
0.0220118
11.6387
0.0224658
11.6332
0.0229294
11.6277
0.0234029
11.622
0.0238867
11.6163
0.0243808
11.6103
0.0248857
11.6043
0.0254014
11.5982
0.0259283
11.5919
0.0264665
11.5854
0.0270164
11.5788
0.0275781
11.5721
0.0281522
11.5653
0.0287388
11.5583
0.0293383
11.5511
0.0299509
11.5438
0.0305768
11.5363
0.0312164
11.5287
0.03187
11.5209
0.0325379
11.5129
0.0332209
11.5048
0.0339192
11.4965
0.0346331
11.488
0.0353628
11.4793
0.0361083
11.4704
0.0368703
11.4613
0.0376493
11.4521
0.0384462
11.4426
0.0392614
11.4329
0.0400952
11.423
0.0409478
11.4129
0.0418192
11.4026
0.04271
11.3921
0.043621
11.3813
0.0445531
11.3703
0.0455073
11.359
0.0464836
11.3475
0.0474825
11.3357
0.0485038
11.3237
0.0495481
11.3114
0.0506164
11.2989
0.0517099
11.286
0.0528297
11.2729
0.0539763
11.2595
0.0551498
11.2458
0.0563502
11.2318
0.0575781
11.2175
0.0588346
11.2029
0.0601211
11.1879
0.061439
11.1727
0.062789
11.157
0.0641714
11.1411
0.0655864
11.1247
0.0670344
11.1081
0.0685167
11.091
0.0700346
11.0736
0.07159
11.0557
0.0731837
11.0375
0.0748164
11.0189
0.0764885
10.9999
0.0782004
10.9804
0.0799531
10.9605
0.0817485
10.9402
0.0835884
10.9194
0.0854744
10.8981
0.0874075
10.8764
0.0893881
10.8542
0.0914165
10.8314
0.0934936
10.8082
0.0956211
10.7845
0.0978015
10.7602
0.100037
10.7354
0.102329
10.71
0.104679
10.684
0.107087
10.6575
0.109553
10.6304
0.112079
10.6027
0.114667
10.5743
0.11732
10.5453
0.120041
10.5157
0.122831
10.4853
0.125691
10.4543
0.128621
10.4226
0.131623
10.3902
0.134699
10.3571
0.137851
10.3232
0.141083
10.2885
0.144398
10.2531
0.147796
10.2169
0.151279
10.1798
0.154847
10.1419
0.158503
10.1032
0.16225
10.0635
0.166092
10.023
0.170032
9.98156
0.17407
9.93918
0.178208
9.89583
0.182448
9.8515
0.186793
9.80616
0.191247
9.75979
0.195814
9.71237
0.200496
9.66387
0.205295
9.61426
0.210212
9.56353
0.215248
9.51164
0.22041
9.45857
0.225701
9.40429
0.231127
9.34876
0.23669
9.29197
0.242393
9.23389
0.248234
9.17448
0.254217
9.11371
0.260347
9.05155
0.266631
8.98796
0.273075
8.92292
0.279685
8.85638
0.286461
8.78832
0.293403
8.7187
0.300512
0.307795
11.2346
0.0103501
-11.2364
11.2327
0.0105589
11.2309
0.0107721
11.229
0.0109897
11.227
0.0112119
11.225
0.0114387
11.223
0.0116703
11.2209
0.0119067
11.2188
0.0121481
11.2167
0.0123945
11.2144
0.0126461
11.2122
0.0129029
11.2099
0.0131652
11.2075
0.0134329
11.2051
0.0137063
11.2027
0.0139854
11.2002
0.0142704
11.1976
0.0145614
11.195
0.0148585
11.1924
0.0151619
11.1896
0.0154716
11.1869
0.0157879
11.184
0.0161109
11.1811
0.0164407
11.1782
0.0167774
11.1751
0.0171213
11.1721
0.0174725
11.1689
0.0178311
11.1657
0.0181973
11.1624
0.0185713
11.159
0.0189531
11.1556
0.0193431
11.1521
0.0197413
11.1485
0.0201481
11.1448
0.0205634
11.1411
0.0209878
11.1373
0.0214211
11.1334
0.0218637
11.1294
0.0223157
11.1253
0.0227774
11.1212
0.0232489
11.1169
0.0237305
11.1126
0.0242224
11.1081
0.0247249
11.1036
0.0252382
11.099
0.0257627
11.0943
0.0262984
11.0894
0.0268457
11.0845
0.0274047
11.0794
0.0279758
11.0743
0.0285591
11.069
0.0291552
11.0636
0.0297642
11.0581
0.0303865
11.0525
0.0310224
11.0468
0.0316721
11.0409
0.032336
11.0349
0.0330142
11.0288
0.0337073
11.0225
0.0344156
11.0161
0.0351395
11.0096
0.0358795
11.0029
0.0366357
10.996
0.0374085
10.9891
0.0381983
10.9819
0.0390054
10.9746
0.0398305
10.9672
0.0406741
10.9596
0.0415368
10.9518
0.0424187
10.9438
0.0433203
10.9357
0.0442417
10.9274
0.0451834
10.9189
0.0461463
10.9102
0.0471312
10.9013
0.0481389
10.8922
0.0491695
10.883
0.0502234
10.8735
0.0513007
10.8638
0.0524021
10.8539
0.0535284
10.8438
0.0546809
10.8334
0.0558604
10.8228
0.0570675
10.812
0.0583022
10.8009
0.0595648
10.7896
0.0608559
10.7781
0.0621766
10.7662
0.0635285
10.7542
0.0649125
10.7418
0.0663294
10.7292
0.0677794
10.7163
0.0692627
10.7031
0.0707801
10.6896
0.0723327
10.6758
0.0739221
10.6617
0.0755499
10.6472
0.0772168
10.6325
0.0789236
10.6174
0.0806703
10.602
0.0824578
10.5862
0.0842874
10.5701
0.0861608
10.5536
0.0880797
10.5367
0.0900453
10.5195
0.0920585
10.5018
0.0941197
10.4838
0.0962298
10.4654
0.0983899
10.4465
0.100602
10.4272
0.102869
10.4075
0.105191
10.3874
0.107571
10.3667
0.110008
10.3457
0.112504
10.3241
0.115059
10.302
0.117675
10.2795
0.120356
10.2564
0.123104
10.2328
0.12592
10.2087
0.128806
10.184
0.131762
10.1588
0.134788
10.133
0.137888
10.1066
0.141064
10.0796
0.144318
10.052
0.147654
10.0237
0.151072
9.99485
0.154576
9.9653
0.158164
9.93509
0.16184
9.90418
0.165605
9.87257
0.169463
9.84024
0.173417
9.80716
0.177469
9.77334
0.181623
9.73874
0.185878
9.70335
0.190238
9.66715
0.194703
9.63012
0.199279
9.59224
0.203968
9.5535
0.208774
9.51387
0.2137
9.47333
0.218746
9.43187
0.223915
9.38945
0.229212
9.34606
0.234639
9.30167
0.240202
9.25626
0.245902
9.20981
0.251743
9.1623
0.257726
9.11369
0.263856
9.06396
0.270136
9.01309
0.276573
8.96105
0.283171
8.90781
0.289932
8.85334
0.296859
8.79762
0.303954
8.74062
0.311221
8.68229
0.318668
8.62263
0.3263
8.56158
0.334125
8.49911
0.342146
8.43521
0.350364
8.36983
0.35878
8.30295
0.3674
0.376234
10.6949
0.0119934
-10.6965
10.6932
0.0122371
10.6915
0.012486
10.6897
0.0127401
10.6879
0.0129995
10.6861
0.0132644
10.6842
0.0135349
10.6823
0.0138112
10.6804
0.0140933
10.6784
0.0143812
10.6764
0.0146754
10.6743
0.0149757
10.6722
0.0152823
10.67
0.0155955
10.6678
0.0159153
10.6656
0.0162419
10.6632
0.0165755
10.6609
0.016916
10.6585
0.0172639
10.656
0.0176191
10.6535
0.0179819
10.651
0.0183524
10.6483
0.0187308
10.6457
0.0191172
10.6429
0.0195119
10.6401
0.019915
10.6373
0.0203268
10.6344
0.0207473
10.6314
0.0211768
10.6283
0.0216155
10.6252
0.0220636
10.622
0.0225213
10.6188
0.0229888
10.6155
0.0234663
10.6121
0.0239541
10.6086
0.0244524
10.6051
0.0249614
10.6015
0.0254814
10.5978
0.0260126
10.594
0.0265552
10.5901
0.0271095
10.5862
0.0276757
10.5822
0.0282542
10.578
0.0288453
10.5738
0.0294491
10.5695
0.0300662
10.5651
0.0306966
10.5606
0.0313407
10.556
0.0319988
10.5513
0.0326712
10.5465
0.0333581
10.5416
0.0340602
10.5366
0.0347776
10.5315
0.0355108
10.5263
0.0362601
10.5209
0.0370259
10.5154
0.0378083
10.5098
0.0386079
10.5041
0.0394251
10.4983
0.0402604
10.4923
0.0411143
10.4862
0.0419872
10.48
0.0428794
10.4736
0.0437913
10.467
0.0447232
10.4604
0.0456758
10.4536
0.0466498
10.4466
0.0476457
10.4395
0.0486643
10.4322
0.0497057
10.4247
0.0507703
10.4171
0.0518585
10.4093
0.0529709
10.4014
0.0541084
10.3932
0.0552721
10.3849
0.0564627
10.3764
0.0576804
10.3677
0.0589257
10.3588
0.0601988
10.3497
0.0615004
10.3404
0.0628318
10.3309
0.0641942
10.3211
0.0655885
10.3112
0.0670153
10.301
0.0684748
10.2906
0.0699673
10.28
0.0714937
10.2691
0.0730553
10.258
0.0746537
10.2466
0.07629
10.235
0.077965
10.2231
0.0796792
10.2109
0.0814328
10.1984
0.0832267
10.1857
0.0850624
10.1727
0.0869415
10.1594
0.0888658
10.1458
0.0908361
10.1318
0.0928533
10.1176
0.0949177
10.103
0.0970303
10.0881
0.0991926
10.0729
0.101407
10.0573
0.103674
10.0413
0.105996
10.025
0.108374
10.0083
0.110809
9.99123
0.113301
9.97377
0.115852
9.95591
0.118465
9.93764
0.121141
9.91894
0.123883
9.89982
0.126691
9.88027
0.129567
9.86026
0.132512
9.83979
0.135526
9.81885
0.138614
9.79743
0.141776
9.77552
0.145016
9.7531
0.148337
9.73017
0.151738
9.70671
0.155221
9.68271
0.158788
9.65816
0.162441
9.63304
0.166182
9.60734
0.170015
9.58105
0.173943
9.55416
0.177968
9.52664
0.182091
9.49849
0.186314
9.46969
0.190639
9.44023
0.195069
9.41009
0.199607
9.37925
0.204256
9.3477
0.209021
9.31542
0.213904
9.28239
0.218905
9.2486
0.224028
9.21403
0.229274
9.17866
0.234649
9.14247
0.240156
9.10545
0.245799
9.06756
0.251581
9.02881
0.257504
8.98915
0.263572
8.94857
0.269787
8.90706
0.276154
8.86458
0.282677
8.82112
0.289362
8.77666
0.29621
8.73116
0.303225
8.6846
0.310412
8.63697
0.317773
8.58822
0.325316
8.53835
0.333045
8.48732
0.340963
8.4351
0.349075
8.38167
0.357384
8.327
0.365895
8.27105
0.374616
8.2138
0.383552
8.15521
0.39271
8.09527
0.402094
8.03392
0.411706
7.97115
0.42155
7.90692
0.431634
0.44197
10.1811
0.0134995
-10.1826
10.1795
0.0137758
10.178
0.0140578
10.1764
0.0143459
10.1747
0.0146401
10.1731
0.0149406
10.1713
0.0152474
10.1696
0.0155608
10.1678
0.0158808
10.166
0.0162077
10.1641
0.0165416
10.1622
0.0168824
10.1603
0.0172306
10.1583
0.0175862
10.1562
0.0179495
10.1542
0.0183205
10.152
0.0186995
10.1499
0.0190865
10.1476
0.0194818
10.1454
0.0198856
10.1431
0.020298
10.1407
0.0207193
10.1383
0.0211496
10.1358
0.0215892
10.1333
0.0220382
10.1307
0.0224969
10.1281
0.0229654
10.1254
0.0234441
10.1226
0.023933
10.1198
0.0244325
10.1169
0.0249428
10.114
0.0254641
10.111
0.0259965
10.1079
0.0265406
10.1047
0.0270964
10.1015
0.0276642
10.0982
0.0282445
10.0949
0.0288373
10.0915
0.0294429
10.0879
0.0300617
10.0844
0.0306939
10.0807
0.0313398
10.077
0.0319999
10.0731
0.0326743
10.0692
0.0333635
10.0652
0.0340679
10.0611
0.0347876
10.0569
0.035523
10.0527
0.0362745
10.0483
0.0370425
10.0438
0.0378273
10.0392
0.0386294
10.0346
0.0394492
10.0298
0.0402872
10.0249
0.0411436
10.0199
0.0420189
10.0148
0.0429135
10.0096
0.0438278
10.0043
0.0447624
9.9988
0.045718
9.99322
0.0466948
9.98752
0.0476935
9.98168
0.0487144
9.97572
0.0497579
9.96961
0.0508246
9.96338
0.0519152
9.95699
0.0530303
9.95047
0.0541708
9.9438
0.0553371
9.93697
0.0565297
9.92999
0.057749
9.92286
0.0589955
9.91556
0.06027
9.90809
0.0615736
9.90046
0.0629072
9.89265
0.0642715
9.88466
0.0656671
9.87649
0.0670943
9.86814
0.0685536
9.85959
0.070046
9.85085
0.0715726
9.84191
0.0731348
9.83277
0.0747338
9.82341
0.0763699
9.81384
0.0780435
9.80406
0.0797552
9.79404
0.081506
9.7838
0.0832975
9.77332
0.0851311
9.76261
0.0870082
9.75164
0.0889298
9.74042
0.0908961
9.72895
0.0929079
9.71721
0.094966
9.7052
0.0970722
9.69291
0.0992284
9.68034
0.101436
9.66748
0.103697
9.65432
0.106011
9.64086
0.10838
9.62709
0.110803
9.613
0.113284
9.59858
0.115825
9.58383
0.118426
9.56873
0.12109
9.55329
0.123818
9.53749
0.12661
9.52132
0.129469
9.50478
0.132396
9.48785
0.135393
9.47053
0.138462
9.4528
0.141606
9.43467
0.144826
9.41611
0.148124
9.39713
0.1515
9.3777
0.154956
9.35781
0.158495
9.33747
0.16212
9.31665
0.165834
9.29535
0.169639
9.27355
0.173537
9.25124
0.177528
9.22842
0.181614
9.20506
0.185798
9.18116
0.190084
9.1567
0.194474
9.13167
0.198972
9.10606
0.203581
9.07985
0.208301
9.05303
0.213136
9.02558
0.218086
8.99749
0.223155
8.96875
0.228348
8.93934
0.233669
8.90924
0.23912
8.87844
0.244705
8.84692
0.250426
8.81466
0.256284
8.78165
0.262283
8.74787
0.268428
8.7133
0.274724
8.67793
0.281175
8.64173
0.287784
8.60468
0.294554
8.56676
0.301487
8.52796
0.308587
8.48826
0.31586
8.44762
0.323311
8.40604
0.330947
8.36348
0.338769
8.31992
0.346781
8.27535
0.354986
8.22973
0.363391
8.18305
0.372
8.13527
0.380821
8.08637
0.389858
8.03633
0.399116
7.98512
0.4086
7.9327
0.418313
7.87905
0.428263
7.82415
0.438457
7.76796
0.448902
7.71045
0.459602
7.65159
0.470563
7.59135
0.48179
7.52969
0.493293
0.505079
9.69187
0.0148818
-9.69325
9.69046
0.0151883
9.68901
0.0155014
9.68754
0.0158212
9.68603
0.0161478
9.68449
0.0164814
9.68292
0.0168221
9.68131
0.0171702
9.67966
0.0175257
9.67798
0.0178889
9.67626
0.0182598
9.67451
0.0186387
9.67271
0.0190257
9.67088
0.019421
9.669
0.0198248
9.66708
0.0202373
9.66512
0.0206588
9.66312
0.0210893
9.66107
0.0215291
9.65898
0.0219783
9.65684
0.0224373
9.65465
0.0229061
9.65242
0.0233851
9.65013
0.0238744
9.6478
0.0243744
9.64541
0.0248851
9.64297
0.0254069
9.64047
0.0259401
9.63792
0.0264848
9.63531
0.0270414
9.63264
0.02761
9.62992
0.0281909
9.62713
0.0287845
9.62428
0.029391
9.62136
0.0300108
9.61839
0.0306441
9.61534
0.0312912
9.61222
0.0319524
9.60904
0.0326281
9.60578
0.0333186
9.60245
0.0340241
9.59905
0.0347451
9.59556
0.0354819
9.592
0.0362349
9.58836
0.0370045
9.58464
0.037791
9.58083
0.0385949
9.57694
0.0394164
9.57296
0.0402561
9.56888
0.0411142
9.56472
0.0419912
9.56046
0.0428878
9.55611
0.0438043
9.55165
0.0447411
9.5471
0.0456988
9.54244
0.0466776
9.53767
0.0476782
9.5328
0.048701
9.52782
0.0497467
9.52272
0.0508159
9.51751
0.051909
9.51217
0.0530267
9.50672
0.0541693
9.50114
0.0553375
9.49543
0.0565319
9.48959
0.0577532
9.48362
0.0590021
9.47751
0.0602795
9.47126
0.0615859
9.46487
0.0629219
9.45833
0.064288
9.45164
0.0656848
9.4448
0.0671134
9.4378
0.0685745
9.43064
0.0700695
9.42331
0.0715989
9.41581
0.0731635
9.40814
0.0747636
9.4003
0.0764001
9.39227
0.0780739
9.38405
0.0797864
9.37565
0.081539
9.36705
0.0833326
9.35825
0.0851679
9.34925
0.0870456
9.34004
0.0889662
9.33061
0.090931
9.32097
0.0929416
9.3111
0.0949997
9.301
0.0971067
9.29067
0.0992635
9.2801
0.101471
9.26927
0.103729
9.2582
0.106039
9.24687
0.108404
9.23527
0.110825
9.2234
0.113304
9.21126
0.115842
9.19883
0.118441
9.18611
0.1211
9.17309
0.123822
9.15977
0.126608
9.14613
0.129461
9.13217
0.132382
9.11789
0.135373
9.10327
0.138437
9.08831
0.141573
9.073
0.144783
9.05732
0.148069
9.04128
0.151434
9.02486
0.154881
9.00806
0.158411
8.99086
0.162027
8.97325
0.165729
8.95523
0.169519
8.93679
0.173399
8.91791
0.177373
8.89859
0.181443
8.87881
0.185612
8.85857
0.189883
8.83785
0.194257
8.81664
0.198736
8.79493
0.203322
8.77271
0.208017
8.74997
0.212826
8.72669
0.217753
8.70286
0.2228
8.67847
0.22797
8.65351
0.233266
8.62796
0.238688
8.6018
0.24424
8.57503
0.249925
8.54763
0.255749
8.51958
0.261716
8.49087
0.26783
8.46149
0.274091
8.43141
0.280504
8.40062
0.28707
8.36911
0.293794
8.33686
0.300682
8.30384
0.307739
8.27005
0.314969
8.23546
0.322375
8.20005
0.32996
8.16381
0.337726
8.12672
0.34568
8.08875
0.353827
8.04989
0.362175
8.01011
0.370728
7.96939
0.379489
7.92771
0.388461
7.88505
0.397649
7.84138
0.407058
7.79668
0.416697
7.75093
0.426573
7.70409
0.436692
7.65615
0.447057
7.60708
0.457673
7.55685
0.468545
7.50543
0.479681
7.4528
0.491088
7.39892
0.502776
7.34378
0.514749
7.28733
0.527015
7.22954
0.539579
7.17038
0.55245
0.565636
9.22608
0.0161498
-9.22735
9.22479
0.0164846
9.22346
0.0168266
9.22211
0.017176
9.22072
0.0175328
9.21931
0.0178974
9.21786
0.0182698
9.21638
0.0186503
9.21487
0.0190389
9.21332
0.019436
9.21174
0.0198416
9.21012
0.0202559
9.20847
0.0206792
9.20678
0.0211117
9.20505
0.0215535
9.20328
0.0220049
9.20147
0.0224661
9.19962
0.0229373
9.19774
0.0234187
9.1958
0.0239105
9.19383
0.0244131
9.19181
0.0249265
9.18974
0.0254511
9.18763
0.0259871
9.18547
0.0265348
9.18326
0.0270944
9.181
0.0276663
9.17869
0.0282506
9.17633
0.0288477
9.17391
0.0294578
9.17144
0.0300812
9.16891
0.0307182
9.16633
0.0313692
9.16368
0.0320345
9.16098
0.0327143
9.15821
0.0334091
9.15539
0.0341192
9.15249
0.0348449
9.14953
0.0355865
9.14651
0.0363444
9.14341
0.0371189
9.14025
0.0379106
9.13701
0.0387197
9.1337
0.0395467
9.13031
0.0403921
9.12685
0.0412562
9.1233
0.0421393
9.11968
0.0430421
9.11597
0.0439648
9.11217
0.0449081
9.10829
0.0458722
9.10432
0.0468579
9.10026
0.0478656
9.09611
0.0488958
9.09186
0.0499491
9.08751
0.0510258
9.08306
0.0521266
9.07851
0.053252
9.07385
0.0544028
9.06909
0.0555794
9.06422
0.0567826
9.05923
0.0580128
9.05413
0.0592708
9.04891
0.0605572
9.04357
0.0618726
9.0381
0.0632177
9.03251
0.0645933
9.02679
0.0660005
9.02094
0.0674397
9.01495
0.0689117
9.00882
0.0704172
9.00255
0.0719568
8.99613
0.0735315
8.98956
0.0751423
8.98284
0.0767904
8.97596
0.0784767
8.96892
0.0802019
8.96172
0.0819666
8.95435
0.0837716
8.9468
0.0856181
8.93908
0.0875075
8.93118
0.089441
8.92309
0.09142
8.91482
0.0934452
8.90634
0.0955172
8.89767
0.097637
8.8888
0.0998059
8.87972
0.102026
8.87042
0.104298
8.8609
0.106624
8.85116
0.109005
8.84119
0.111442
8.83098
0.113936
8.82053
0.116487
8.80984
0.119099
8.79889
0.121773
8.78768
0.124512
8.77621
0.127315
8.76446
0.130185
8.75244
0.133123
8.74013
0.13613
8.72753
0.139208
8.71463
0.14236
8.70143
0.145587
8.68791
0.148893
8.67407
0.152277
8.6599
0.155742
8.64539
0.159289
8.63054
0.16292
8.61534
0.166639
8.59977
0.170447
8.58383
0.174348
8.56752
0.178343
8.55081
0.182433
8.53371
0.186621
8.5162
0.190909
8.49828
0.195299
8.47992
0.199796
8.46113
0.204402
8.44189
0.209121
8.4222
0.213953
8.40203
0.218901
8.38139
0.223967
8.36025
0.229154
8.33861
0.234466
8.31645
0.239909
8.29377
0.245484
8.27055
0.251194
8.24677
0.257042
8.22243
0.26303
8.19751
0.269161
8.17199
0.275439
8.14587
0.281871
8.11913
0.28846
8.09175
0.29521
8.06372
0.302122
8.03502
0.309201
8.00564
0.316449
7.97556
0.323872
7.94477
0.331476
7.91324