/*--------------------------------*- C++ -*----------------------------------*\
  =========                 |
  \\      /  F ield         | OpenFOAM: The Open Source CFD Toolbox
   \\    /   O peration     | Website:  https://openfoam.org
    \\  /    A nd           | Version:  13
     \\/     M anipulation  |
\*---------------------------------------------------------------------------*/
FoamFile
{
    format      ascii;
    class       volVectorField;
    location    "0.4";
    object      U;
}
// * * * * * * * * * * * * * * * * * * * * * * * * * * * * * * * * * * * * * //

dimensions      [0 1 -1 0 0 0 0];

internalField   nonuniform List<vector> 
68864
(
(30.0155 -0.131027 -1.42411e-21)
(30.0156 -0.131571 -4.2785e-23)
(30.0156 -0.132123 1.14507e-20)
(30.0157 -0.132681 -1.27735e-20)
(30.0157 -0.133246 1.23541e-21)
(30.0158 -0.133819 -1.87934e-21)
(30.0158 -0.134398 5.73451e-21)
(30.0159 -0.134983 -1.87734e-21)
(30.016 -0.135575 2.10932e-21)
(30.016 -0.136174 -7.65764e-21)
(30.0161 -0.136781 4.36748e-21)
(30.0161 -0.137396 5.40968e-22)
(30.0162 -0.138018 -8.85827e-21)
(30.0163 -0.138647 3.61698e-21)
(30.0163 -0.139283 5.06766e-21)
(30.0164 -0.139926 -3.32112e-21)
(30.0164 -0.140576 5.13529e-21)
(30.0165 -0.141234 3.64391e-21)
(30.0166 -0.141899 -1.82641e-21)
(30.0166 -0.142572 -5.99693e-21)
(30.0167 -0.143253 8.80484e-21)
(30.0168 -0.143942 4.48602e-21)
(30.0168 -0.144638 -6.17257e-21)
(30.0169 -0.145342 -6.95606e-21)
(30.017 -0.146053 4.12205e-21)
(30.017 -0.146772 -8.13015e-21)
(30.0171 -0.147499 3.71679e-21)
(30.0172 -0.148233 8.12242e-21)
(30.0172 -0.148974 -1.77999e-20)
(30.0173 -0.149724 -1.2548e-20)
(30.0174 -0.150481 3.84258e-21)
(30.0175 -0.151247 1.04312e-20)
(30.0175 -0.152022 -7.5419e-21)
(30.0176 -0.152803 2.0092e-20)
(30.0177 -0.153592 1.19974e-20)
(30.0177 -0.154388 -2.15995e-20)
(30.0178 -0.155191 2.20892e-20)
(30.0179 -0.156002 -1.06537e-20)
(30.018 -0.156821 -1.32143e-20)
(30.018 -0.157648 2.72266e-20)
(30.0181 -0.158483 -2.65722e-20)
(30.0182 -0.159327 2.56102e-20)
(30.0183 -0.160177 -9.27889e-21)
(30.0184 -0.161035 3.62669e-22)
(30.0184 -0.161899 -2.75804e-20)
(30.0185 -0.16277 3.18833e-20)
(30.0186 -0.163647 -9.76703e-21)
(30.0187 -0.164532 -9.50212e-21)
(30.0188 -0.165426 -8.68207e-22)
(30.0189 -0.166327 1.31233e-20)
(30.0189 -0.167236 -1.04737e-20)
(30.019 -0.16815 -3.84418e-21)
(30.0191 -0.16907 2.05648e-20)
(30.0192 -0.169995 -8.89729e-21)
(30.0193 -0.170927 3.94452e-21)
(30.0194 -0.171866 -9.14814e-21)
(30.0195 -0.172811 1.33202e-20)
(30.0196 -0.173764 -1.17712e-20)
(30.0197 -0.174721 8.02239e-21)
(30.0197 -0.175683 -1.94269e-20)
(30.0198 -0.176649 3.03893e-21)
(30.0199 -0.17762 1.46522e-20)
(30.02 -0.178595 -3.79109e-21)
(30.0201 -0.179577 1.10674e-20)
(30.0202 -0.180566 -1.17891e-20)
(30.0203 -0.18156 4.28463e-21)
(30.0204 -0.182556 -5.14817e-21)
(30.0205 -0.183553 3.44568e-21)
(30.0206 -0.18455 2.90823e-22)
(30.0207 -0.185549 4.30762e-21)
(30.0208 -0.186554 4.13724e-21)
(30.0209 -0.187565 -4.27339e-21)
(30.0211 -0.188582 -1.65057e-20)
(30.0212 -0.189601 1.85043e-20)
(30.0213 -0.190617 -7.99563e-21)
(30.0214 -0.191629 -6.51336e-21)
(30.0215 -0.192638 2.11639e-20)
(30.0216 -0.19365 -2.41895e-20)
(30.0217 -0.194667 9.45707e-21)
(30.0218 -0.195689 -1.32941e-20)
(30.0219 -0.196712 2.41058e-20)
(30.022 -0.19773 -1.60796e-20)
(30.0221 -0.198739 4.34259e-21)
(30.0222 -0.199741 1.15611e-20)
(30.0224 -0.200743 -1.43307e-20)
(30.0225 -0.201747 -2.16627e-21)
(30.0226 -0.202755 1.15944e-20)
(30.0227 -0.203761 -4.05634e-21)
(30.0228 -0.20476 -7.98725e-21)
(30.0229 -0.205747 1.44333e-20)
(30.023 -0.206722 4.12488e-21)
(30.0231 -0.207692 4.41762e-21)
(30.0233 -0.208661 -1.85077e-20)
(30.0234 -0.209631 7.36885e-21)
(30.0235 -0.210599 -1.95619e-20)
(30.0236 -0.211557 2.26213e-20)
(30.0237 -0.212501 -3.07725e-20)
(30.0238 -0.213429 2.40072e-20)
(30.0239 -0.214346 1.2881e-21)
(30.024 -0.215257 -2.3961e-20)
(30.0241 -0.216166 3.42119e-20)
(30.0243 -0.21707 -1.14346e-20)
(30.0244 -0.217963 -1.61358e-20)
(30.0245 -0.218841 2.03101e-21)
(30.0246 -0.2197 6.46367e-21)
(30.0247 -0.220544 -4.17956e-21)
(30.0248 -0.221377 1.23109e-20)
(30.0249 -0.222205 3.62699e-21)
(30.025 -0.223025 -1.56329e-20)
(30.0251 -0.223833 2.27522e-21)
(30.0252 -0.224624 2.18695e-21)
(30.0253 -0.225394 1.01622e-21)
(30.0254 -0.226144 3.24243e-21)
(30.0254 -0.22688 -9.28047e-21)
(30.0255 -0.227606 1.18689e-20)
(30.0256 -0.228324 -5.16583e-21)
(30.0257 -0.229033 5.28323e-22)
(30.0258 -0.229726 7.61122e-21)
(30.0259 -0.230395 -3.20147e-21)
(30.026 -0.231041 -4.6774e-21)
(30.026 -0.231665 -3.2471e-21)
(30.0261 -0.232275 5.7662e-21)
(30.0262 -0.232876 -4.29897e-21)
(30.0263 -0.23347 8.78359e-21)
(30.0263 -0.234052 -6.16675e-22)
(30.0264 -0.234615 7.65139e-22)
(30.0265 -0.235153 -5.132e-21)
(30.0266 -0.235667 -1.05859e-21)
(30.0266 -0.23616 -1.84444e-21)
(30.0267 -0.23664 2.88645e-21)
(30.0267 -0.237113 -1.9496e-21)
(30.0268 -0.237576 3.88703e-21)
(30.0268 -0.238026 -2.338e-21)
(30.0269 -0.238456 -4.97618e-24)
(30.027 -0.238861 1.59771e-21)
(30.027 -0.239244 -2.61885e-21)
(30.027 -0.239611 8.40016e-22)
(30.0271 -0.23997 1.83487e-22)
(30.0271 -0.240321 2.01988e-22)
(30.0272 -0.240662 1.17444e-21)
(30.0272 -0.240985 -2.52915e-21)
(30.0273 -0.241285 2.59378e-21)
(30.0273 -0.241564 -1.86706e-21)
(30.0273 -0.241829 -7.54551e-22)
(30.0273 -0.242088 5.12914e-22)
(30.0274 -0.242341 1.5332e-21)
(30.0274 -0.242585 -3.13926e-22)
(30.0274 -0.242812 -1.10073e-21)
(30.0275 -0.243016 5.2866e-22)
(30.0275 -0.243201 6.2458e-22)
(30.0275 -0.243375 -7.98569e-22)
(30.0275 -0.243547 4.66964e-22)
(30.0276 -0.243718 -1.21887e-22)
(30.0276 -0.243881 -2.20554e-22)
(30.0276 -0.244026 2.4649e-24)
(30.0276 -0.244146 1.00122e-22)
(30.0276 -0.244247 1.12755e-22)
(30.0276 -0.24434 -1.05238e-22)
(30.0277 -0.244435 2.25986e-23)
(30.0277 -0.244533 2.26957e-24)
(30.0277 -0.244626 1.1684e-23)
(30.0277 -0.244701 4.03277e-23)
(30.0277 -0.24475 -3.67379e-23)
(30.0277 -0.244777 1.69045e-23)
(30.0277 -0.244794 -1.7377e-23)
(30.0277 -0.244815 1.82733e-24)
(30.0277 -0.244854 4.72871e-25)
(30.0164 -0.131588 -3.1281e-21)
(30.0164 -0.132084 2.74658e-21)
(30.0165 -0.132588 -3.35569e-20)
(30.0166 -0.133098 5.22042e-21)
(30.0166 -0.133616 6.07765e-21)
(30.0167 -0.134142 2.47068e-20)
(30.0168 -0.134674 -3.03825e-20)
(30.0168 -0.135212 2.98682e-20)
(30.0169 -0.135758 -4.10324e-20)
(30.017 -0.136311 4.61102e-21)
(30.0171 -0.136873 1.76613e-20)
(30.0171 -0.137442 -1.71434e-20)
(30.0172 -0.138019 -1.421e-21)
(30.0173 -0.138604 1.6338e-20)
(30.0174 -0.139195 6.8177e-22)
(30.0174 -0.139794 -6.19158e-21)
(30.0175 -0.140401 1.80483e-20)
(30.0176 -0.141015 -1.30299e-20)
(30.0177 -0.141638 3.97581e-21)
(30.0178 -0.142269 3.59711e-21)
(30.0179 -0.142908 -4.14052e-21)
(30.0179 -0.143555 -3.25904e-21)
(30.018 -0.144211 2.84959e-20)
(30.0181 -0.144874 -3.84279e-20)
(30.0182 -0.145545 -5.9597e-21)
(30.0183 -0.146225 3.05285e-20)
(30.0184 -0.146912 -1.69204e-20)
(30.0185 -0.147607 1.10508e-20)
(30.0186 -0.148311 -1.98259e-20)
(30.0187 -0.149023 1.16901e-20)
(30.0188 -0.149743 -1.45057e-20)
(30.0189 -0.150473 2.96666e-20)
(30.019 -0.151211 -2.39288e-20)
(30.0191 -0.151957 -1.81356e-20)
(30.0192 -0.152711 6.93927e-20)
(30.0193 -0.153473 2.97927e-21)
(30.0194 -0.154243 -3.25845e-20)
(30.0195 -0.155021 1.89064e-21)
(30.0196 -0.155807 1.26053e-20)
(30.0197 -0.156603 -7.16967e-21)
(30.0198 -0.157407 -2.0532e-20)
(30.0199 -0.15822 1.30976e-20)
(30.02 -0.159041 1.54212e-20)
(30.0202 -0.159869 -2.16356e-20)
(30.0203 -0.160705 -1.58167e-20)
(30.0204 -0.161547 3.38291e-20)
(30.0205 -0.162398 -5.81148e-20)
(30.0206 -0.163257 6.98343e-20)
(30.0208 -0.164125 -3.89113e-20)
(30.0209 -0.165002 -2.06475e-20)
(30.021 -0.165887 6.77167e-21)
(30.0211 -0.166778 4.7811e-20)
(30.0213 -0.167676 -4.22999e-22)
(30.0214 -0.168579 3.8301e-21)
(30.0216 -0.16949 -4.31217e-20)
(30.0217 -0.170408 -1.6251e-20)
(30.0218 -0.171334 2.80548e-20)
(30.022 -0.172268 -1.35655e-20)
(30.0221 -0.173209 5.03276e-21)
(30.0223 -0.174155 -2.10395e-21)
(30.0224 -0.175106 1.24425e-21)
(30.0226 -0.176062 1.27382e-20)
(30.0227 -0.177023 3.57661e-20)
(30.0229 -0.177991 -5.0295e-20)
(30.023 -0.178968 2.45968e-20)
(30.0232 -0.179951 -3.80885e-20)
(30.0234 -0.180938 -1.25379e-20)
(30.0235 -0.181927 4.0516e-20)
(30.0237 -0.182916 1.51704e-20)
(30.0239 -0.183908 -1.01978e-20)
(30.024 -0.184905 -2.36931e-20)
(30.0242 -0.185911 3.56147e-20)
(30.0244 -0.186924 -1.62419e-20)
(30.0245 -0.187941 1.30467e-20)
(30.0247 -0.188956 -2.33935e-20)
(30.0249 -0.189968 2.06663e-20)
(30.0251 -0.190977 1.23502e-20)
(30.0253 -0.191988 9.60958e-22)
(30.0254 -0.193007 -3.98275e-20)
(30.0256 -0.194033 2.83007e-20)
(30.0258 -0.195061 -4.45998e-20)
(30.026 -0.196086 3.00337e-20)
(30.0262 -0.197102 -1.33605e-20)
(30.0264 -0.198111 1.66117e-20)
(30.0266 -0.199119 -1.37496e-20)
(30.0268 -0.200132 2.66998e-20)
(30.027 -0.201151 -2.00513e-20)
(30.0272 -0.20217 5.64163e-21)
(30.0274 -0.203183 -1.67199e-21)
(30.0276 -0.204185 -1.64075e-20)
(30.0277 -0.205175 3.22329e-20)
(30.0279 -0.206159 -1.43191e-20)
(30.0281 -0.207143 -9.19545e-21)
(30.0283 -0.20813 -6.86936e-21)
(30.0285 -0.209117 -2.86976e-21)
(30.0287 -0.210096 7.53536e-21)
(30.0289 -0.211061 1.6087e-20)
(30.0291 -0.212011 8.0948e-21)
(30.0293 -0.212949 -2.71356e-20)
(30.0295 -0.213882 -7.92699e-21)
(30.0297 -0.214814 8.16992e-21)
(30.0299 -0.215742 1.5609e-20)
(30.0301 -0.216661 3.74127e-21)
(30.0303 -0.217565 -3.93059e-21)
(30.0305 -0.218451 -9.96059e-21)
(30.0307 -0.219322 -4.2405e-21)
(30.0309 -0.220182 6.44152e-21)
(30.031 -0.221037 1.60126e-20)
(30.0312 -0.221885 -1.53836e-20)
(30.0314 -0.222723 4.37537e-21)
(30.0316 -0.223545 -1.10656e-20)
(30.0318 -0.224345 1.72568e-20)
(30.0319 -0.225126 -8.00557e-21)
(30.0321 -0.22589 -2.95307e-21)
(30.0323 -0.226645 1.34761e-20)
(30.0324 -0.227394 -1.57077e-20)
(30.0326 -0.228134 -4.83049e-22)
(30.0328 -0.228858 4.92284e-21)
(30.0329 -0.229561 8.11686e-21)
(30.0331 -0.230238 -7.10794e-21)
(30.0332 -0.230893 -6.20813e-21)
(30.0334 -0.231532 9.90956e-21)
(30.0335 -0.232162 -5.38046e-21)
(30.0336 -0.232786 1.16633e-21)
(30.0338 -0.233398 7.72429e-22)
(30.0339 -0.233993 -6.93358e-21)
(30.034 -0.234563 7.87074e-22)
(30.0342 -0.235106 -1.57162e-22)
(30.0343 -0.235628 9.84763e-21)
(30.0344 -0.236134 -3.94582e-21)
(30.0345 -0.236633 1.76068e-21)
(30.0346 -0.237123 -2.40329e-21)
(30.0347 -0.2376 1.95532e-21)
(30.0348 -0.238058 -2.84855e-21)
(30.0349 -0.238491 5.9954e-21)
(30.035 -0.238899 -6.71529e-21)
(30.0351 -0.23929 4.34427e-21)
(30.0352 -0.23967 -3.80716e-21)
(30.0353 -0.240043 6.48795e-23)
(30.0353 -0.240405 4.53464e-21)
(30.0354 -0.240751 -8.72461e-22)
(30.0355 -0.241075 -1.66293e-21)
(30.0355 -0.241376 1.70357e-21)
(30.0356 -0.241659 5.83649e-22)
(30.0357 -0.241934 -3.08186e-21)
(30.0357 -0.242202 -2.81651e-22)
(30.0358 -0.242462 3.50309e-21)
(30.0358 -0.242706 -3.17784e-21)
(30.0359 -0.242929 1.98941e-21)
(30.0359 -0.243131 8.05435e-22)
(30.0359 -0.243319 -2.50982e-21)
(30.036 -0.243502 6.72338e-22)
(30.036 -0.243682 -5.97868e-22)
(30.036 -0.243855 4.88755e-22)
(30.0361 -0.244011 2.99388e-22)
(30.0361 -0.244144 -3.80185e-22)
(30.0361 -0.244257 8.10955e-22)
(30.0361 -0.24436 -7.39236e-22)
(30.0361 -0.244462 3.03511e-22)
(30.0362 -0.244566 -6.9452e-23)
(30.0362 -0.244663 1.86904e-22)
(30.0362 -0.244742 -3.74161e-23)
(30.0362 -0.244796 -7.07459e-23)
(30.0362 -0.244829 5.57298e-23)
(30.0362 -0.244852 -5.27492e-23)
(30.0362 -0.244876 7.49145e-24)
(30.0362 -0.244914 -4.60687e-24)
(30.0065 -0.131673 -2.34931e-20)
(30.0066 -0.132175 -9.15912e-21)
(30.0067 -0.132685 -1.00835e-20)
(30.0068 -0.133201 2.32639e-20)
(30.0068 -0.133724 -2.90213e-20)
(30.0069 -0.134255 5.34842e-20)
(30.007 -0.134793 -7.47714e-21)
(30.0071 -0.135337 2.04544e-21)
(30.0072 -0.135888 3.259e-22)
(30.0073 -0.136447 5.32913e-21)
(30.0074 -0.137014 -3.87207e-20)
(30.0075 -0.137589 1.42013e-20)
(30.0076 -0.138171 1.74631e-20)
(30.0077 -0.138761 1.7179e-20)
(30.0079 -0.139358 -2.20048e-20)
(30.008 -0.139963 1.27303e-20)
(30.0081 -0.140575 -2.11182e-21)
(30.0082 -0.141195 1.43383e-21)
(30.0083 -0.141823 -1.88323e-20)
(30.0084 -0.142459 -3.16972e-21)
(30.0086 -0.143103 -1.07086e-20)
(30.0087 -0.143755 -1.14676e-20)
(30.0088 -0.144415 1.85577e-20)
(30.0089 -0.145084 5.26906e-21)
(30.0091 -0.145761 -2.68845e-20)
(30.0092 -0.146445 4.66956e-20)
(30.0093 -0.147138 -3.76579e-20)
(30.0095 -0.147838 6.78246e-21)
(30.0096 -0.148547 3.30293e-20)
(30.0097 -0.149263 1.68998e-21)
(30.0099 -0.149989 -4.44158e-20)
(30.01 -0.150724 3.26222e-20)
(30.0102 -0.151467 -3.73086e-20)
(30.0103 -0.152218 -7.59814e-21)
(30.0105 -0.152977 3.27854e-20)
(30.0106 -0.153744 -6.99129e-21)
(30.0108 -0.154519 -1.10137e-20)
(30.0109 -0.155302 2.0729e-20)
(30.0111 -0.156093 5.82943e-21)
(30.0113 -0.156894 1.68575e-20)
(30.0114 -0.157702 -8.49065e-20)
(30.0116 -0.15852 1.72386e-20)
(30.0118 -0.159346 8.97297e-20)
(30.0119 -0.160179 -1.0203e-19)
(30.0121 -0.16102 8.71233e-22)
(30.0123 -0.161868 5.65392e-20)
(30.0125 -0.162723 4.66407e-20)
(30.0127 -0.163587 -2.84102e-20)
(30.0129 -0.16446 1.36058e-20)
(30.0131 -0.165341 -2.34413e-20)
(30.0132 -0.16623 5.3983e-21)
(30.0134 -0.167126 -2.48854e-20)
(30.0137 -0.168028 5.02095e-20)
(30.0139 -0.168936 8.07006e-21)
(30.0141 -0.169851 -4.59332e-20)
(30.0143 -0.170774 -4.26196e-20)
(30.0145 -0.171705 9.89287e-21)
(30.0147 -0.172644 7.41315e-20)
(30.0149 -0.17359 -3.37993e-20)
(30.0152 -0.17454 -3.4077e-20)
(30.0154 -0.175494 -1.92915e-20)
(30.0156 -0.176453 3.72272e-20)
(30.0158 -0.177418 6.04419e-20)
(30.0161 -0.178391 -8.49815e-20)
(30.0163 -0.179371 3.64033e-20)
(30.0166 -0.180359 1.41691e-20)
(30.0168 -0.18135 2.63847e-20)
(30.0171 -0.182342 -3.85852e-20)
(30.0173 -0.183335 1.11513e-20)
(30.0176 -0.184329 -1.34798e-20)
(30.0178 -0.185329 4.72505e-20)
(30.0181 -0.186339 -1.63818e-21)
(30.0184 -0.187355 -4.5217e-20)
(30.0186 -0.188375 9.64815e-21)
(30.0189 -0.189393 -1.59963e-21)
(30.0192 -0.190406 1.01479e-20)
(30.0195 -0.191417 -2.4962e-20)
(30.0197 -0.19243 -1.58198e-20)
(30.02 -0.193452 -2.66136e-21)
(30.0203 -0.19448 1.58225e-20)
(30.0206 -0.19551 -2.15733e-20)
(30.0209 -0.196535 5.99135e-20)
(30.0212 -0.197551 -2.84054e-21)
(30.0215 -0.198561 -3.98705e-20)
(30.0218 -0.19957 4.90896e-21)
(30.0221 -0.200584 2.51048e-20)
(30.0224 -0.201604 -1.28522e-20)
(30.0227 -0.202623 -4.65343e-20)
(30.023 -0.203636 5.76175e-20)
(30.0233 -0.204637 -1.88804e-20)
(30.0236 -0.205626 -1.63107e-20)
(30.0239 -0.206608 -1.41246e-20)
(30.0242 -0.207592 8.58701e-21)
(30.0245 -0.208578 5.52079e-20)
(30.0248 -0.209563 -2.38754e-20)
(30.0251 -0.21054 -1.05914e-20)
(30.0254 -0.211503 3.53465e-20)
(30.0257 -0.212451 -3.65611e-20)
(30.026 -0.213387 3.0253e-20)
(30.0263 -0.214317 -2.99206e-20)
(30.0266 -0.215245 -5.73146e-21)
(30.0269 -0.21617 -5.56484e-22)
(30.0272 -0.217085 4.05222e-21)
(30.0275 -0.217986 1.22753e-20)
(30.0278 -0.218868 5.33807e-21)
(30.0281 -0.219735 -3.79093e-20)
(30.0284 -0.220592 1.87394e-20)
(30.0287 -0.221441 2.8583e-20)
(30.029 -0.222284 -5.55208e-21)
(30.0293 -0.223117 -3.6583e-20)
(30.0295 -0.223933 3.93883e-20)
(30.0298 -0.224729 -1.9944e-20)
(30.0301 -0.225505 1.93633e-20)
(30.0304 -0.226264 -2.47876e-21)
(30.0306 -0.227014 -2.83446e-20)
(30.0309 -0.227756 4.39099e-21)
(30.0311 -0.228489 4.32043e-21)
(30.0314 -0.229207 5.82274e-21)
(30.0316 -0.229903 -1.52958e-21)
(30.0319 -0.230574 -7.91977e-21)
(30.0321 -0.231223 -3.59148e-21)
(30.0323 -0.231857 -7.65542e-21)
(30.0326 -0.23248 2.16676e-20)
(30.0328 -0.233097 4.07818e-21)
(30.033 -0.233702 -1.57004e-20)
(30.0332 -0.234289 1.14173e-21)
(30.0334 -0.234852 3.31455e-22)
(30.0336 -0.235389 -7.12141e-21)
(30.0338 -0.235904 4.98562e-21)
(30.034 -0.236404 6.0774e-21)
(30.0342 -0.236896 6.93655e-21)
(30.0343 -0.237379 -6.27966e-21)
(30.0345 -0.237849 1.90057e-21)
(30.0347 -0.238299 -6.50184e-21)
(30.0348 -0.238725 4.92369e-21)
(30.035 -0.239126 -1.03205e-21)
(30.0351 -0.23951 1.23264e-21)
(30.0352 -0.239884 -6.82955e-22)
(30.0354 -0.24025 1.55986e-21)
(30.0355 -0.240606 -2.39999e-21)
(30.0356 -0.240945 -3.82832e-23)
(30.0358 -0.241262 1.44236e-21)
(30.0359 -0.241556 1.55132e-21)
(30.036 -0.241833 7.9054e-22)
(30.0361 -0.242101 -6.12275e-21)
(30.0362 -0.242364 1.44347e-21)
(30.0363 -0.242618 4.25489e-21)
(30.0364 -0.242857 -3.09323e-21)
(30.0364 -0.243073 -4.61254e-22)
(30.0365 -0.243269 1.34291e-21)
(30.0366 -0.243451 -3.28122e-21)
(30.0366 -0.243627 2.61558e-21)
(30.0367 -0.243802 -6.61792e-22)
(30.0368 -0.243969 1.01463e-21)
(30.0368 -0.244121 -5.87634e-22)
(30.0369 -0.244251 2.64524e-23)
(30.0369 -0.24436 4.04679e-22)
(30.037 -0.244458 -4.4554e-22)
(30.037 -0.244554 4.33013e-22)
(30.0371 -0.24465 -6.50201e-22)
(30.0371 -0.244741 8.20988e-23)
(30.0372 -0.244816 2.10214e-22)
(30.0372 -0.244869 -4.0984e-23)
(30.0373 -0.2449 7.97321e-24)
(30.0373 -0.244921 4.90906e-23)
(30.0373 -0.24494 -1.89216e-23)
(30.0374 -0.244966 6.51141e-24)
(30.0021 -0.133194 7.51512e-21)
(30.0022 -0.133665 -1.15288e-20)
(30.0023 -0.134143 2.78177e-20)
(30.0024 -0.134629 -2.93879e-20)
(30.0025 -0.135121 6.20151e-20)
(30.0026 -0.135621 -8.80422e-20)
(30.0027 -0.136128 4.80857e-20)
(30.0028 -0.136641 3.58393e-20)
(30.003 -0.137161 1.66228e-20)
(30.0031 -0.137689 -4.48298e-20)
(30.0032 -0.138225 3.7518e-20)
(30.0033 -0.138769 -3.46556e-20)
(30.0034 -0.13932 2.06925e-20)
(30.0036 -0.13988 -1.85457e-20)
(30.0037 -0.140446 3.78774e-21)
(30.0038 -0.14102 -2.71962e-20)
(30.004 -0.141601 -1.35634e-20)
(30.0041 -0.142191 6.14741e-20)
(30.0042 -0.142788 -1.7884e-20)
(30.0044 -0.143394 -5.36131e-20)
(30.0045 -0.144008 -1.81887e-20)
(30.0046 -0.144631 2.24925e-20)
(30.0048 -0.145262 -2.50097e-20)
(30.0049 -0.145901 4.90469e-20)
(30.0051 -0.146549 -5.37407e-21)
(30.0053 -0.147204 1.24018e-20)
(30.0054 -0.147868 -3.25469e-20)
(30.0056 -0.148539 2.48701e-20)
(30.0057 -0.149219 2.39125e-20)
(30.0059 -0.149907 2.09312e-20)
(30.0061 -0.150605 -3.51904e-20)
(30.0062 -0.151312 -3.22742e-21)
(30.0064 -0.152028 -5.0596e-20)
(30.0066 -0.152752 8.41126e-20)
(30.0068 -0.153485 -6.94008e-20)
(30.007 -0.154225 5.06367e-21)
(30.0071 -0.154973 2.0841e-20)
(30.0073 -0.15573 -2.83678e-20)
(30.0075 -0.156496 7.34493e-20)
(30.0077 -0.15727 -8.00218e-20)
(30.0079 -0.158054 8.8933e-20)
(30.0081 -0.158847 -7.57762e-20)
(30.0083 -0.159649 3.34491e-20)
(30.0085 -0.160458 2.68437e-20)
(30.0088 -0.161276 -4.2568e-20)
(30.009 -0.1621 1.90835e-20)
(30.0092 -0.162933 -2.60891e-20)
(30.0094 -0.163775 2.06839e-20)
(30.0097 -0.164625 1.74857e-20)
(30.0099 -0.165485 -1.08259e-20)
(30.0101 -0.166353 -6.67116e-21)
(30.0104 -0.167228 7.00211e-20)
(30.0106 -0.168109 -1.03674e-19)
(30.0109 -0.168997 6.68618e-20)
(30.0111 -0.169893 2.14631e-20)
(30.0114 -0.170797 -9.42176e-20)
(30.0117 -0.17171 2.96882e-20)
(30.0119 -0.172631 -2.61837e-20)
(30.0122 -0.173558 9.10041e-20)
(30.0125 -0.174491 -7.42504e-20)
(30.0128 -0.175428 1.86273e-20)
(30.013 -0.17637 -1.72038e-20)
(30.0133 -0.17732 9.01644e-20)
(30.0136 -0.178278 -4.06401e-20)
(30.0139 -0.179244 4.25763e-20)
(30.0142 -0.180217 -1.00475e-19)
(30.0145 -0.181194 -4.33115e-20)
(30.0148 -0.182172 3.07659e-20)
(30.0152 -0.18315 3.42781e-20)
(30.0155 -0.184132 3.24379e-20)
(30.0158 -0.185121 2.3979e-20)
(30.0161 -0.18612 -1.12248e-19)
(30.0165 -0.187125 6.42335e-20)
(30.0168 -0.188134 -3.61134e-20)
(30.0171 -0.189141 3.65833e-20)
(30.0175 -0.190143 3.87422e-20)
(30.0178 -0.191145 -9.59535e-20)
(30.0182 -0.19215 1.18334e-19)
(30.0185 -0.193164 -3.6181e-20)
(30.0189 -0.194184 -3.75888e-20)
(30.0192 -0.195207 4.90174e-20)
(30.0196 -0.196224 -5.75183e-20)
(30.02 -0.197233 -2.4416e-20)
(30.0203 -0.198237 2.37893e-20)
(30.0207 -0.19924 4.99534e-20)
(30.0211 -0.20025 -2.71657e-20)
(30.0215 -0.201265 1.471e-20)
(30.0218 -0.202281 -2.13085e-20)
(30.0222 -0.203289 1.40808e-21)
(30.0226 -0.204285 -4.54112e-20)
(30.023 -0.20527 5.7916e-20)
(30.0234 -0.20625 -1.87559e-20)
(30.0237 -0.207232 5.57451e-20)
(30.0241 -0.208217 -4.04078e-20)
(30.0245 -0.209201 -2.5328e-20)
(30.0249 -0.210178 9.34965e-22)
(30.0253 -0.211139 -7.64772e-21)
(30.0257 -0.212086 -1.28989e-20)
(30.0261 -0.213021 5.95442e-21)
(30.0265 -0.213952 -1.05385e-20)
(30.0268 -0.214882 2.12183e-20)
(30.0272 -0.215809 3.62561e-20)
(30.0276 -0.216726 -1.99574e-20)
(30.028 -0.217629 4.06766e-20)
(30.0284 -0.218513 -2.56117e-20)
(30.0287 -0.219382 1.28049e-20)
(30.0291 -0.220241 -2.48998e-20)
(30.0295 -0.221095 -2.19456e-21)
(30.0298 -0.221942 2.08463e-20)
(30.0302 -0.22278 -4.27093e-20)
(30.0305 -0.223601 3.46208e-20)
(30.0309 -0.224402 1.23906e-20)
(30.0312 -0.225182 -4.30281e-20)
(30.0316 -0.225946 3.32768e-20)
(30.0319 -0.226701 -1.41248e-20)
(30.0322 -0.22745 -1.076e-20)
(30.0326 -0.22819 -8.27878e-21)
(30.0329 -0.228915 3.36098e-21)
(30.0332 -0.229618 -7.93174e-21)
(30.0335 -0.230296 1.63413e-20)
(30.0338 -0.230952 -5.38499e-21)
(30.0341 -0.231592 1.68234e-20)
(30.0343 -0.232224 -2.24723e-20)
(30.0346 -0.232849 1.33755e-20)
(30.0349 -0.233464 1.28246e-20)
(30.0351 -0.234059 -1.94574e-20)
(30.0354 -0.23463 8.69811e-21)
(30.0356 -0.235174 -1.01214e-21)
(30.0359 -0.235697 3.61458e-22)
(30.0361 -0.236207 -1.06761e-20)
(30.0363 -0.236709 2.69682e-20)
(30.0365 -0.237202 -2.27086e-20)
(30.0367 -0.237682 1.10395e-20)
(30.0369 -0.23814 1.51071e-21)
(30.0371 -0.238573 -3.75875e-22)
(30.0373 -0.238983 -8.69554e-22)
(30.0374 -0.239376 -8.10087e-21)
(30.0376 -0.23976 7.0785e-21)
(30.0377 -0.240138 2.31589e-21)
(30.0379 -0.240503 -6.99412e-21)
(30.038 -0.24085 -2.37133e-22)
(30.0382 -0.241173 1.93274e-21)
(30.0383 -0.241473 3.5111e-21)
(30.0384 -0.241759 1.06981e-22)
(30.0385 -0.242038 -1.94429e-21)
(30.0386 -0.242312 1.33864e-22)
(30.0387 -0.242575 -2.86669e-22)
(30.0388 -0.242819 -2.62885e-21)
(30.0388 -0.24304 8.34835e-21)
(30.0389 -0.243241 -3.8506e-21)
(30.039 -0.24343 -1.15135e-21)
(30.039 -0.243616 5.85104e-22)
(30.0391 -0.243801 1.75087e-21)
(30.0391 -0.243977 -9.8609e-23)
(30.0392 -0.244133 -1.46371e-21)
(30.0392 -0.244265 -3.00548e-22)
(30.0392 -0.244377 1.33688e-21)
(30.0393 -0.244479 -4.54847e-22)
(30.0393 -0.244581 1.33677e-22)
(30.0393 -0.244686 -1.85563e-22)
(30.0393 -0.244784 -8.55004e-23)
(30.0393 -0.244864 2.00773e-22)
(30.0394 -0.244919 -1.41158e-22)
(30.0394 -0.244951 -5.69086e-23)
(30.0394 -0.244972 1.0532e-22)
(30.0394 -0.244995 -1.83385e-23)
(30.0394 -0.245026 -1.25209e-23)
(29.9945 -0.133736 2.6089e-20)
(29.9946 -0.134211 -3.60381e-20)
(29.9947 -0.134692 -1.40605e-20)
(29.9949 -0.135181 3.6637e-20)
(29.995 -0.135677 -1.3227e-20)
(29.9951 -0.136181 1.32095e-20)
(29.9952 -0.136691 -3.47459e-20)
(29.9953 -0.137208 1.78878e-20)
(29.9955 -0.137732 3.10034e-20)
(29.9956 -0.138264 -5.21776e-20)
(29.9957 -0.138804 8.58814e-20)
(29.9959 -0.139352 -8.51839e-20)
(29.996 -0.139909 5.02655e-20)
(29.9961 -0.140472 -3.78555e-20)
(29.9963 -0.141043 3.99538e-22)
(29.9964 -0.141622 5.8548e-20)
(29.9966 -0.142208 -1.13163e-19)
(29.9967 -0.142801 6.05476e-20)
(29.9969 -0.143404 5.92509e-21)
(29.9971 -0.144015 -1.34299e-21)
(29.9972 -0.144634 -3.06012e-20)
(29.9974 -0.145262 -1.57516e-20)
(29.9976 -0.145898 -3.16047e-20)
(29.9977 -0.146542 9.2057e-20)
(29.9979 -0.147195 -7.0477e-21)
(29.9981 -0.147856 3.49644e-20)
(29.9983 -0.148524 -5.45376e-20)
(29.9985 -0.149201 1.63831e-20)
(29.9986 -0.149886 -3.45802e-20)
(29.9988 -0.150581 4.05603e-20)
(29.999 -0.151285 4.07576e-20)
(29.9992 -0.151998 -5.62684e-20)
(29.9994 -0.152719 -2.75014e-20)
(29.9997 -0.153449 4.36278e-20)
(29.9999 -0.154187 -8.69633e-20)
(30.0001 -0.154933 1.19843e-19)
(30.0003 -0.155687 -4.73942e-20)
(30.0005 -0.15645 4.53388e-20)
(30.0008 -0.157222 9.48436e-21)
(30.001 -0.158003 -5.53643e-20)
(30.0013 -0.158793 8.42768e-21)
(30.0015 -0.159592 1.20812e-20)
(30.0018 -0.160399 -1.31652e-21)
(30.002 -0.161215 -6.95143e-20)
(30.0023 -0.162038 7.43525e-20)
(30.0025 -0.162869 -1.40642e-20)
(30.0028 -0.163708 7.34262e-21)
(30.0031 -0.164556 1.54595e-20)
(30.0034 -0.165412 -3.65266e-20)
(30.0037 -0.166277 4.94305e-20)
(30.004 -0.167151 -3.66087e-20)
(30.0043 -0.168032 -1.14705e-20)
(30.0046 -0.168919 3.40228e-20)
(30.0049 -0.169814 1.33922e-20)
(30.0052 -0.170716 -3.25024e-20)
(30.0055 -0.171626 -1.74793e-20)
(30.0058 -0.172544 -4.97718e-20)
(30.0062 -0.173469 3.40102e-20)
(30.0065 -0.174401 -5.56363e-20)
(30.0068 -0.175338 9.70901e-20)
(30.0072 -0.176281 7.5496e-21)
(30.0075 -0.177229 -1.19034e-19)
(30.0079 -0.178184 1.37908e-19)
(30.0083 -0.179147 -1.07219e-19)
(30.0086 -0.180117 1.50085e-20)
(30.009 -0.181093 6.08893e-20)
(30.0094 -0.182072 -6.12655e-20)
(30.0098 -0.183054 7.39285e-20)
(30.0102 -0.184037 -1.20585e-19)
(30.0106 -0.185023 6.41822e-20)
(30.011 -0.186015 5.39858e-20)
(30.0114 -0.187015 -5.6974e-20)
(30.0118 -0.188023 1.13851e-19)
(30.0122 -0.189032 -3.07611e-20)
(30.0127 -0.19004 2.1023e-20)
(30.0131 -0.191045 -1.20857e-19)
(30.0135 -0.192047 2.30583e-20)
(30.014 -0.193054 -4.48008e-20)
(30.0144 -0.194067 9.28683e-20)
(30.0149 -0.195087 -1.0259e-19)
(30.0153 -0.196108 9.706e-20)
(30.0158 -0.197124 -4.52872e-20)
(30.0163 -0.198132 8.29175e-20)
(30.0167 -0.199134 -1.22618e-19)
(30.0172 -0.200136 9.20582e-20)
(30.0177 -0.201143 -4.44109e-21)
(30.0181 -0.202154 -1.05749e-19)
(30.0186 -0.203165 1.55871e-19)
(30.0191 -0.204169 -8.32533e-20)
(30.0196 -0.20516 -1.71868e-20)
(30.0201 -0.20614 4.83233e-20)
(30.0206 -0.207115 -2.2977e-20)
(30.0211 -0.208091 -1.53946e-20)
(30.0215 -0.20907 5.97249e-20)
(30.022 -0.210047 -6.6887e-20)
(30.0225 -0.211015 2.04551e-21)
(30.023 -0.211967 -3.29566e-20)
(30.0235 -0.212905 6.62506e-20)
(30.024 -0.213831 3.71773e-21)
(30.0245 -0.214753 -1.17501e-20)
(30.025 -0.215674 -5.81129e-21)
(30.0255 -0.216591 -3.08034e-20)
(30.026 -0.217498 7.88625e-21)
(30.0265 -0.218388 3.32334e-20)
(30.0269 -0.21926 -5.98287e-20)
(30.0274 -0.220116 4.73036e-20)
(30.0279 -0.220963 1.61931e-20)
(30.0284 -0.221805 -2.66679e-20)
(30.0288 -0.222641 3.57429e-20)
(30.0293 -0.223466 -1.0665e-21)
(30.0297 -0.224273 -3.06926e-20)
(30.0302 -0.225058 2.06166e-20)
(30.0306 -0.225823 1.38454e-20)
(30.0311 -0.226573 -1.98608e-20)
(30.0315 -0.227314 4.5391e-21)
(30.0319 -0.22805 -9.26449e-21)
(30.0323 -0.228776 -5.61037e-21)
(30.0328 -0.229487 -2.72695e-20)
(30.0332 -0.230174 5.26056e-20)
(30.0335 -0.230835 2.51917e-21)
(30.0339 -0.231475 -2.42577e-20)
(30.0343 -0.232101 4.38047e-21)
(30.0347 -0.232719 -2.10114e-20)
(30.035 -0.233331 2.38384e-20)
(30.0354 -0.233931 1.98032e-20)
(30.0357 -0.23451 -1.98726e-20)
(30.036 -0.235064 1.6244e-20)
(30.0364 -0.235593 -5.73076e-21)
(30.0367 -0.236102 -1.99785e-20)
(30.037 -0.236599 -5.51019e-21)
(30.0372 -0.237088 -1.03467e-21)
(30.0375 -0.237569 3.43152e-21)
(30.0378 -0.238034 2.00013e-20)
(30.0381 -0.238476 -2.25221e-20)
(30.0383 -0.238894 4.63009e-21)
(30.0385 -0.239291 -2.61814e-21)
(30.0387 -0.239674 6.02485e-21)
(30.039 -0.240048 5.75698e-21)
(30.0392 -0.240414 -6.9394e-21)
(30.0394 -0.240766 5.54246e-21)
(30.0396 -0.241098 -6.59192e-21)
(30.0397 -0.241407 5.42677e-21)
(30.0399 -0.241698 -3.02387e-21)
(30.04 -0.241977 -5.2943e-22)
(30.0402 -0.242249 -8.54115e-22)
(30.0403 -0.242514 5.22296e-22)
(30.0405 -0.242765 5.95533e-22)
(30.0406 -0.242995 -1.7903e-21)
(30.0407 -0.243203 3.44601e-21)
(30.0408 -0.243396 1.89185e-23)
(30.0409 -0.243582 9.63583e-22)
(30.0409 -0.243766 -2.40239e-21)
(30.041 -0.243946 1.11008e-21)
(30.0411 -0.244112 5.76554e-22)
(30.0412 -0.244255 -2.43456e-21)
(30.0412 -0.244375 2.25617e-21)
(30.0412 -0.244479 -1.09172e-22)
(30.0413 -0.24458 -9.52908e-22)
(30.0413 -0.244684 -4.00483e-22)
(30.0414 -0.244789 -2.78815e-22)
(30.0414 -0.244882 3.1261e-23)
(30.0414 -0.244951 1.30078e-22)
(30.0414 -0.244994 -1.60846e-22)
(30.0414 -0.245019 -1.00468e-22)
(30.0414 -0.245038 -6.27121e-23)
(30.0414 -0.245063 -2.70291e-23)
(30.0414 -0.245094 -1.15835e-23)
(29.9884 -0.135434 -5.49446e-20)
(29.9885 -0.135897 -3.20145e-20)
(29.9886 -0.136367 7.29001e-20)
(29.9888 -0.136844 -3.76303e-20)
(29.9889 -0.137329 5.15536e-21)
(29.989 -0.13782 8.44916e-21)
(29.9892 -0.138319 7.77586e-21)
(29.9893 -0.138824 3.23692e-20)
(29.9894 -0.139335 -8.58192e-20)
(29.9896 -0.139855 2.34381e-20)
(29.9897 -0.140382 2.91929e-20)
(29.9899 -0.140918 5.98901e-21)
(29.99 -0.141462 -5.80512e-21)
(29.9902 -0.142013 5.12172e-20)
(29.9904 -0.142572 -5.50026e-20)
(29.9905 -0.143137 1.41235e-20)
(29.9907 -0.14371 2.30418e-20)
(29.9909 -0.144291 -4.48964e-20)
(29.9911 -0.144881 -2.78488e-20)
(29.9912 -0.145479 7.24999e-20)
(29.9914 -0.146086 -8.30025e-20)
(29.9916 -0.146701 7.50118e-20)
(29.9918 -0.147324 -1.70242e-20)
(29.992 -0.147956 -6.38127e-21)
(29.9922 -0.148595 -6.87176e-20)
(29.9924 -0.149243 3.85641e-21)
(29.9926 -0.149899 9.98374e-20)
(29.9928 -0.150563 -8.03537e-20)
(29.993 -0.151235 -1.66569e-21)
(29.9932 -0.151917 3.3013e-20)
(29.9935 -0.152608 4.09608e-20)
(29.9937 -0.153308 1.51429e-20)
(29.9939 -0.154017 -3.32089e-20)
(29.9942 -0.154734 -6.48046e-20)
(29.9944 -0.155459 5.58726e-20)
(29.9947 -0.156192 2.23656e-20)
(29.9949 -0.156933 -3.25373e-20)
(29.9952 -0.157684 -6.08242e-20)
(29.9955 -0.158443 3.97462e-20)
(29.9957 -0.159212 7.36993e-20)
(29.996 -0.15999 -3.00729e-20)
(29.9963 -0.160776 4.26967e-20)
(29.9966 -0.161572 -1.35252e-19)
(29.9969 -0.162375 3.99234e-20)
(29.9972 -0.163187 3.47418e-20)
(29.9975 -0.164006 -1.55176e-20)
(29.9978 -0.164832 -5.62731e-21)
(29.9981 -0.165667 3.38425e-20)
(29.9984 -0.166511 -1.38437e-20)
(29.9987 -0.167365 -2.98822e-20)
(29.9991 -0.168227 3.73155e-20)
(29.9994 -0.169097 -1.39679e-20)
(29.9998 -0.169974 5.29305e-20)
(30.0001 -0.170857 -4.82842e-20)
(30.0005 -0.171747 -4.88836e-23)
(30.0009 -0.172645 4.47633e-20)
(30.0012 -0.17355 2.40846e-20)
(30.0016 -0.174464 -4.76184e-20)
(30.002 -0.175386 -5.58539e-20)
(30.0024 -0.176313 3.144e-20)
(30.0028 -0.177245 4.6522e-20)
(30.0032 -0.178182 -4.46728e-20)
(30.0036 -0.179126 -4.83294e-20)
(30.0041 -0.180076 5.19602e-20)
(30.0045 -0.181034 -3.99462e-20)
(30.0049 -0.182 -1.55096e-20)
(30.0054 -0.182969 7.63759e-20)
(30.0058 -0.18394 -4.30614e-20)
(30.0063 -0.184912 -1.3826e-20)
(30.0067 -0.185887 -6.80527e-20)
(30.0072 -0.186867 1.14352e-19)
(30.0077 -0.187856 3.80107e-20)
(30.0082 -0.188852 3.40583e-20)
(30.0087 -0.189852 1.75691e-20)
(30.0092 -0.190849 -1.64085e-19)
(30.0097 -0.191842 1.84027e-20)