/*--------------------------------*- C++ -*----------------------------------*\
  =========                 |
  \\      /  F ield         | OpenFOAM: The Open Source CFD Toolbox
   \\    /   O peration     | Website:  https://openfoam.org
    \\  /    A nd           | Version:  13
     \\/     M anipulation  |
\*---------------------------------------------------------------------------*/
FoamFile
{
    format      ascii;
    class       volScalarField;
    location    "0.3";
    object      p;
}
// * * * * * * * * * * * * * * * * * * * * * * * * * * * * * * * * * * * * * //

dimensions      [0 2 -2 0 0 0 0];

internalField   nonuniform List<scalar> 
68864
(
0.371578
0.370124
0.36851
0.366711
0.364902
0.363129
0.361356
0.359562
0.35775
0.355928
0.354095
0.35225
0.350392
0.34852
0.346634
0.344736
0.342823
0.340896
0.338955
0.336999
0.335027
0.333039
0.331035
0.329015
0.326979
0.324927
0.322857
0.320768
0.31866
0.316532
0.314386
0.312222
0.310039
0.307836
0.305611
0.303364
0.301094
0.298802
0.296488
0.294152
0.291794
0.289411
0.287003
0.284571
0.282113
0.27963
0.277121
0.274587
0.272026
0.269439
0.266824
0.264183
0.261514
0.258817
0.256092
0.25334
0.250559
0.24775
0.244913
0.242048
0.239155
0.236234
0.233285
0.230308
0.227304
0.224273
0.221215
0.218131
0.21502
0.211885
0.208724
0.20554
0.202332
0.199102
0.19585
0.192577
0.189285
0.185974
0.182645
0.1793
0.175941
0.172568
0.169182
0.165786
0.162381
0.158969
0.155551
0.152129
0.148705
0.145282
0.14186
0.138442
0.13503
0.131625
0.128231
0.124849
0.121483
0.118134
0.114805
0.111497
0.108211
0.10495
0.101717
0.0985155
0.0953476
0.092216
0.089122
0.0860669
0.083052
0.0800793
0.0771513
0.0742707
0.0714399
0.0686608
0.0659346
0.0632624
0.0606451
0.058084
0.0555805
0.0531362
0.0507521
0.0484295
0.0461689
0.0439709
0.0418357
0.0397637
0.0377552
0.0358105
0.0339296
0.0321124
0.0303585
0.0286677
0.0270394
0.025473
0.0239679
0.0225232
0.021138
0.0198113
0.018542
0.0173288
0.0161706
0.0150659
0.0140133
0.0130114
0.0120586
0.0111532
0.0102936
0.0094781
0.00870496
0.00797238
0.00727854
0.00662156
0.00599947
0.00541022
0.0048513
0.00432059
0.00381687
0.00333883
0.00288482
0.0024531
0.00204208
0.00165039
0.00127748
0.00092338
0.000591658
0.000288081
4.50699e-05
0.636449
0.634747
0.632756
0.630547
0.628337
0.626161
0.623967
0.621734
0.619467
0.617176
0.614859
0.612513
0.610137
0.607731
0.605294
0.602827
0.600328
0.597796
0.595231
0.592632
0.589998
0.587328
0.584622
0.58188
0.5791
0.576283
0.573426
0.570527
0.567586
0.564603
0.561578
0.558511
0.5554
0.552245
0.549041
0.54579
0.542489
0.539139
0.53574
0.532291
0.528791
0.525239
0.521633
0.517972
0.514255
0.510483
0.506655
0.502769
0.498825
0.494823
0.490761
0.486638
0.482455
0.47821
0.473904
0.469535
0.465103
0.460608
0.45605
0.451428
0.446743
0.441993
0.43718
0.432303
0.427362
0.422358
0.417291
0.412161
0.406969
0.401716
0.396403
0.391029
0.385598
0.380108
0.374562
0.368962
0.363308
0.357603
0.351848
0.346045
0.340196
0.334303
0.32837
0.322398
0.31639
0.310349
0.304277
0.298179
0.292056
0.285914
0.279755
0.273583
0.2674
0.26121
0.255018
0.248829
0.242647
0.236478
0.230324
0.224188
0.218073
0.211984
0.205927
0.199909
0.193936
0.188011
0.182136
0.176314
0.170548
0.164844
0.159208
0.153646
0.148162
0.142759
0.137439
0.132205
0.127061
0.12201
0.117057
0.112204
0.107455
0.102812
0.0982759
0.0938496
0.0895348
0.0853331
0.0812461
0.077275
0.0734205
0.0696833
0.0660638
0.062562
0.0591779
0.0559111
0.0527612
0.0497271
0.046808
0.0440026
0.0413093
0.0387265
0.0362524
0.0338848
0.0316216
0.0294603
0.0273983
0.025433
0.0235614
0.0217806
0.0200875
0.0184788
0.0169513
0.0155014
0.0141258
0.0128209
0.0115835
0.0104098
0.0092951
0.00823515
0.00722628
0.00626487
0.00534717
0.00446997
0.00362958
0.00282788
0.00205688
0.00135588
0.000550743
0.952704
0.950416
0.94775
0.944849
0.941945
0.939057
0.936125
0.93313
0.930081
0.926985
0.923841
0.920645
0.917396
0.914094
0.910738
0.907327
0.90386
0.900336
0.896754
0.893113
0.889411
0.885648
0.881822
0.877934
0.873983
0.869966
0.865883
0.86173
0.857507
0.853214
0.84885
0.844415
0.839908
0.835325
0.830666
0.825927
0.821109
0.816211
0.811233
0.806174
0.801032
0.795805
0.790492
0.785091
0.779601
0.774023
0.768355
0.762595
0.756744
0.750799
0.744759
0.738625
0.732394
0.726067
0.719642
0.713119
0.706498
0.699778
0.692958
0.686039
0.67902
0.671901
0.664682
0.657363
0.649944
0.642427
0.634811
0.627097
0.619287
0.61138
0.603379
0.595284
0.587097
0.57882
0.570455
0.562004
0.553469
0.544853
0.536158
0.527387
0.518544
0.509631
0.500653
0.491613
0.482516
0.473364
0.464163
0.454917
0.445632
0.436313
0.426965
0.417592
0.408201
0.398797
0.389385
0.379973
0.370569
0.36118
0.35181
0.342465
0.333149
0.323869
0.314635
0.305456
0.296341
0.287296
0.278325
0.269431
0.260621
0.251902
0.243285
0.234777
0.226386
0.218115
0.209969
0.201953
0.194071
0.186332
0.178739
0.171299
0.164016
0.156893
0.149934
0.143142
0.13652
0.130071
0.123798
0.117701
0.111783
0.106046
0.100489
0.0951128
0.0899179
0.0849037
0.0800695
0.0754142
0.0709363
0.0666339
0.062505
0.058547
0.054757
0.0511322
0.0476689
0.0443636
0.0412124
0.0382111
0.0353552
0.0326403
0.0300615
0.0276138
0.0252921
0.023091
0.0210051
0.0190286
0.017156
0.015381
0.0136975
0.0120994
0.0105807
0.00913534
0.00775709
0.00643942
0.00517708
0.0039593
0.0027909
0.00160985
0.000592522
1.21746
1.21462
1.21141
1.20801
1.20459
1.20118
1.1977
1.19415
1.19054
1.18687
1.18314
1.17935
1.17549
1.17157
1.16758
1.16351
1.15938
1.15518
1.15091
1.14656
1.14213
1.13763
1.13304
1.12838
1.12364
1.11881
1.11389
1.10889
1.1038
1.09862
1.09335
1.08798
1.08252
1.07696
1.07131
1.06555
1.05969
1.05372
1.04765
1.04147
1.03518
1.02878
1.02227
1.01564
1.00889
1.00203
0.99505
0.987948
0.980723
0.973374
0.965899
0.958298
0.950568
0.942709
0.93472
0.9266
0.918347
0.909961
0.901441
0.892787
0.883998
0.875073
0.866014
0.856818
0.847488
0.838022
0.828422
0.818689
0.808822
0.798824
0.788695
0.778437
0.768052
0.757541
0.746908
0.736154
0.725283
0.714297
0.703199
0.691994
0.680685
0.669277
0.657773
0.646179
0.6345
0.62274
0.610905
0.599003
0.587038
0.575017
0.562949
0.550838
0.538692
0.526517
0.514322
0.502116
0.48991
0.47771
0.465526
0.453362
0.441226
0.429129
0.41708
0.405093
0.393178
0.381343
0.369594
0.357938
0.346383
0.334939
0.323619
0.312433
0.30139
0.290497
0.279759
0.269184
0.25878
0.248555
0.238517
0.228673
0.219029
0.20959
0.200361
0.191347
0.182553
0.173983
0.16564
0.157528
0.149648
0.142004
0.134595
0.127424
0.120491
0.113795
0.107336
0.101113
0.0951251
0.0893691
0.0838429
0.0785436
0.0734677
0.0686115
0.0639707
0.0595407
0.0553165
0.0512928
0.0474639
0.0438239
0.0403666
0.0370853
0.0339734
0.0310239
0.0282293
0.0255824
0.0230755
0.0207006
0.0184497
0.0163144
0.0142864
0.0123571
0.0105177
0.00875918
0.00707273
0.0054479
0.00387699
0.00234101
0.000829429
1.48963
1.48663
1.48321
1.47958
1.47595
1.4723
1.46856
1.46473
1.46082
1.45683
1.45277
1.44861
1.44437
1.44005
1.43563
1.43113
1.42653
1.42183
1.41704
1.41216
1.40717
1.40207
1.39687
1.39157
1.38616
1.38064
1.375
1.36925
1.36338
1.35739
1.35128
1.34505
1.3387
1.33221
1.3256
1.31885
1.31196
1.30494
1.29777
1.29047
1.28303
1.27544
1.2677
1.25981
1.25177
1.24357
1.23522
1.22671
1.21804
1.2092
1.20021
1.19105
1.18172
1.17222
1.16256
1.15272
1.14271
1.13253
1.12217
1.11164
1.10093
1.09005
1.07899
1.06776
1.05635
1.04476
1.033
1.02107
1.00896
0.996683
0.984235
0.971619
0.958838
0.945894
0.932789
0.919527
0.906112
0.892547
0.878836
0.864984
0.850995
0.836876
0.822631
0.808267
0.793789
0.779204
0.76452
0.749744
0.734884
0.719948
0.704945
0.689883
0.674771
0.659617
0.644433
0.629228
0.614016
0.598807
0.583609
0.568432
0.553286
0.538182
0.523134
0.508158
0.493265
0.478466
0.46377
0.449186
0.434724
0.420398
0.406222
0.392209
0.37837
0.364714
0.35125
0.337986
0.324933
0.312102
0.299501
0.287141
0.275029
0.263171
0.251575
0.240247
0.229192
0.218417
0.207925
0.197722
0.18781
0.178191
0.168869
0.159845
0.151119
0.142691
0.134561
0.126728
0.11919
0.111945
0.104989
0.0983199
0.0919323
0.0858221
0.079984
0.0744124
0.069101
0.0640433
0.0592322
0.0546604
0.0503199
0.0462027
0.0423001
0.0386035
0.0351035
0.031791
0.028656
0.0256886
0.0228786
0.0202153
0.017688
0.0152858
0.0129972
0.0108106
0.00871405
0.0066953
0.00474105
0.00284138
0.00095062
1.7483
1.74483
1.74092
1.73683
1.73273
1.72859
1.72436
1.72002
1.71559
1.71108
1.70647
1.70176
1.69696
1.69205
1.68704
1.68193
1.67671
1.67138
1.66594
1.66038
1.65471
1.64892
1.64301
1.63697
1.63081
1.62452
1.61809
1.61154
1.60484
1.598
1.59102
1.5839
1.57663
1.56921
1.56164
1.55391
1.54601
1.53796
1.52974
1.52136
1.51281
1.50408
1.49518
1.4861
1.47683
1.46739
1.45776
1.44794
1.43793
1.42772
1.41732
1.40672
1.39593
1.38493
1.37373
1.36232
1.3507
1.33888
1.32685
1.31461
1.30215
1.28949
1.27661
1.26352
1.25021
1.2367
1.22297
1.20903
1.19488
1.18053
1.16597
1.1512
1.13623
1.12107
1.10571
1.09015
1.07441
1.05849
1.04238
1.0261
1.00966
0.993052
0.976291
0.959381
0.942331
0.925148
0.90784
0.890417
0.872887
0.855262
0.837551
0.819763
0.801909
0.784
0.766048
0.748067
0.730069
0.712069
0.694077
0.676103
0.658161
0.640263
0.622427
0.60467
0.587006
0.569448
0.552006
0.534692
0.51752
0.500505
0.483664
0.467012
0.450562
0.434325
0.418311
0.402533
0.387002
0.371732
0.356733
0.342016
0.327591
0.313467
0.299652
0.286153
0.272977
0.260133
0.247625
0.235458
0.223637
0.212165
0.201045
0.190279
0.179868
0.169812
0.160112
0.150765
0.14177
0.133124
0.124825
0.116867
0.109246
0.101957
0.0949942
0.0883499
0.0820174
0.0759888
0.0702559
0.0648098
0.0596412
0.0547406
0.0500976
0.0457018
0.0415423
0.0376077
0.0338865
0.0303665
0.0270355
0.0238808
0.0208893
0.0180476
0.0153418
0.0127576
0.0102805
0.00789379
0.00558511
0.00332531
0.0011291
2.00009
1.99647
1.99238
1.98812
1.98385
1.97953
1.97509
1.97054
1.96588
1.96112
1.95625
1.95126
1.94616
1.94094
1.9356
1.93014
1.92456
1.91884
1.913
1.90701
1.9009
1.89464
1.88823
1.88169
1.87499
1.86814
1.86113
1.85397
1.84664
1.83914
1.83148
1.82364
1.81563
1.80744
1.79907
1.79051
1.78176
1.77282
1.76368
1.75435
1.74481
1.73507
1.72511
1.71494
1.70456
1.69396
1.68313
1.67209
1.66081
1.6493
1.63756
1.62558
1.61337
1.60091
1.58821
1.57526
1.56207
1.54863
1.53494
1.52099
1.5068
1.49235
1.47764
1.46269
1.44748
1.43201
1.41629
1.40032
1.3841
1.36763
1.35091
1.33395
1.31675
1.29931
1.28163
1.26373
1.2456
1.22725
1.20869
1.18991
1.17094
1.15177
1.13242
1.11289
1.09319
1.07332
1.05331
1.03316
1.01288
0.992485
0.971984
0.951388
0.930712
0.909967
0.889168
0.86833
0.84747
0.826602
0.805739
0.784895
0.764083
0.743321
0.722628
0.702023
0.681523
0.661143
0.640895
0.620794
0.600855
0.581098
0.56154
0.5422
0.523093
0.50423
0.485627
0.467295
0.449249
0.431505
0.414075
0.396972
0.380207
0.36379
0.347731
0.332039
0.316723
0.301791
0.28725
0.273104
0.259361
0.246023
0.233095
0.220577
0.208473
0.196782
0.185505
0.174639
0.164183
0.154134
0.144488
0.135241
0.126386
0.117918
0.109831
0.102115
0.094763
0.087766
0.0811142
0.0747974
0.0688049
0.0631254
0.0577472
0.0526579
0.0478448
0.0432948
0.0389943
0.0349293
0.0310853
0.0274475
0.0240005
0.0207286
0.0176154
0.0146436
0.0117965
0.00905243
0.00640215
0.00379252
0.00131401
2.25177
2.24778
2.24327
2.23862
2.23396
2.22923
2.22436
2.21937
2.21427
2.20904
2.2037
2.19822
2.19262
2.18689
2.18102
2.17501
2.16887
2.16257
2.15613
2.14954
2.1428
2.13589
2.12883
2.12159
2.1142
2.10662
2.09888
2.09095
2.08283
2.07453
2.06604
2.05735
2.04847
2.03938
2.03009
2.02058
2.01086
2.00091
1.99075
1.98036
1.96973
1.95888
1.94778
1.93644
1.92486
1.91302
1.90093
1.88859
1.87598
1.86311
1.84997
1.83656
1.82288
1.80893
1.79469
1.78017
1.76537
1.75028
1.73491
1.71925
1.70329
1.68705
1.67052
1.65369
1.63657
1.61916
1.60146
1.58346
1.56518
1.54662
1.52777
1.50863
1.48922
1.46954
1.44959
1.42937
1.40889
1.38816
1.36718
1.34597
1.32452
1.30285
1.28096
1.25887
1.23658
1.21411
1.19147
1.16867
1.14571
1.12262
1.09942
1.0761
1.05269
1.0292
1.00565
0.982048
0.958424
0.93479
0.91116
0.887552
0.86398
0.840465
0.817028
0.79369
0.770471
0.747388
0.724454
0.701688
0.679106
0.656731
0.634583
0.612681
0.591043
0.569684
0.548618
0.527861
0.507429
0.487339
0.467606
0.448245
0.429266
0.410683
0.392506
0.374745
0.357411
0.340512
0.324057
0.308051
0.292501
0.277411
0.262785
0.248625
0.234934
0.221713
0.20896
0.196674
0.184853
0.173494
0.162592
0.152143
0.14214
0.132575
0.123442
0.114731
0.106434
0.0985388
0.0910361
0.083914
0.0771601
0.0707618
0.0647056
0.0589777
0.0535636
0.0484483
0.0436165
0.0390521
0.0347388
0.0306596
0.026797
0.0231328
0.0196484
0.0163238
0.01314
0.01007
0.00710995
0.00417805
0.00146829
2.4959
2.4917
2.48695
2.48206
2.47718
2.4722
2.46708
2.46181
2.45642
2.4509
2.44524
2.43944
2.4335
2.42741
2.42117
2.41477
2.40822
2.4015
2.39462
2.38757
2.38034
2.37294
2.36536
2.35759
2.34963
2.34147
2.33312
2.32456
2.3158
2.30682
2.29762
2.28821
2.27857
2.2687
2.2586
2.24825
2.23766
2.22682
2.21573
2.20438
2.19277
2.18089
2.16874
2.15632
2.14361
2.13062
2.11734
2.10376
2.08989
2.07572
2.06124
2.04646
2.03136
2.01595
2.00022
1.98417
1.9678
1.9511
1.93407
1.91671
1.89902
1.881
1.86265
1.84396
1.82494
1.80558
1.7859
1.76588
1.74554
1.72486
1.70387
1.68255
1.66092
1.63897
1.61672
1.59417
1.57132
1.54818
1.52477
1.50108
1.47713
1.45292
1.42847
1.40379
1.37889
1.35378
1.32847
1.30298
1.27732
1.25152
1.22557
1.1995
1.17333
1.14707
1.12074
1.09437
1.06796
1.04154
1.01513
0.988741
0.962398
0.93612
0.909932
0.883857
0.857917
0.83213
0.806514
0.781087
0.755871
0.730888
0.706162
0.681713
0.657562
0.633725
0.610217
0.587058
0.564266
0.541857
0.51985
0.498259
0.477098
0.456381
0.436118
0.416323
0.397006
0.378176
0.359842
0.342012
0.324692
0.307886
0.291599
0.275834
0.260593
0.245876
0.231682
0.218011
0.20486
0.192224
0.180099
0.16848
0.157358
0.146727
0.136578
0.126901
0.117685
0.108919
0.100591
0.0926883
0.085197
0.0781029
0.0713911
0.0650462
0.0590518
0.0533915
0.0480479
0.0430032
0.038239
0.0337364
0.0294758
0.0254367
0.0215983
0.0179375
0.014434
0.0110542
0.00780229
0.00455894
0.00164387
2.7435
2.73895
2.73381
2.72856
2.7233
2.71794
2.71242
2.70674
2.70092
2.69496
2.68885
2.68258
2.67615
2.66956
2.66281
2.65588
2.64878
2.6415
2.63404
2.62639
2.61854
2.6105
2.60225
2.59381
2.58515
2.57627
2.56718
2.55785
2.5483
2.53851
2.52848
2.5182
2.50768
2.4969
2.48585
2.47454
2.46295
2.45109
2.43895
2.42652
2.4138
2.40078
2.38745
2.37382
2.35987
2.34561
2.33102
2.31611
2.30087
2.28528
2.26936
2.25309
2.23648
2.21951
2.20219
2.18451
2.16646
2.14806
2.12928
2.11014
2.09063
2.07074
2.05049
2.02986
2.00886
1.98749
1.96575
1.94363
1.92116
1.89831
1.87511
1.85155
1.82764
1.80338
1.77878
1.75384
1.72858
1.70299
1.6771
1.65091
1.62442
1.59765
1.57062
1.54333
1.51579
1.48803
1.46005
1.43188
1.40352
1.375
1.34633
1.31752
1.28861
1.25961
1.23053
1.2014
1.17225
1.14308
1.11394
1.08482
1.05576
1.02678
0.997901
0.969156
0.940565
0.91215
0.883929
0.855924
0.828157
0.800654
0.773441
0.746541
0.719973
0.693756
0.667909
0.642451
0.617402
0.592781
0.568607
0.544895
0.521661
0.498919
0.476682
0.454962
0.433771
0.41312
0.393016
0.373469
0.354485
0.336068
0.318224
0.300956
0.284264
0.268149
0.252612
0.237649
0.223258
0.209434
0.196173
0.183466
0.171308
0.159688
0.148598
0.138026
0.127961
0.118391
0.109302
0.10068
0.0925102
0.0847763
0.0774623
0.070551
0.0640249
0.0578655
0.0520539
0.0465704
0.0413949
0.0365065
0.0318836
0.0275035
0.0233434
0.0193775
0.0155838
0.0119224
0.00840692
0.00487592
0.00179768
2.98643
2.9816
2.97614
2.97058
2.96502
2.95935
2.95349
2.94747
2.94129
2.93496
2.92846
2.92179
2.91494
2.90792
2.90072
2.89332
2.88574
2.87796
2.86998
2.86178
2.85338
2.84476
2.83592
2.82685
2.81755
2.80801
2.79823
2.78819
2.7779
2.76735
2.75653
2.74544
2.73408
2.72243
2.71049
2.69825
2.68571
2.67286
2.6597
2.64623
2.63242
2.61829
2.60382
2.589
2.57384
2.55833
2.54245
2.52621
2.50961
2.49263
2.47527
2.45752
2.43939
2.42087
2.40195
2.38264
2.36292
2.3428
2.32227
2.30133
2.27998
2.25821
2.23604
2.21345
2.19045
2.16703
2.14321
2.11897
2.09433
2.06929
2.04385
2.01801
1.99179
1.96518
1.9382
1.91084
1.88313
1.85507
1.82666
1.79793
1.76887
1.73952
1.70986
1.67993
1.64974
1.6193
1.58863
1.55774
1.52666
1.49541
1.46399
1.43244
1.40078
1.36902
1.33719
1.30531
1.27341
1.24151
1.20963
1.1778
1.14604
1.11437
1.08283
1.05144
1.02023
0.989216
0.958426
0.927881
0.897607
0.86763
0.837978
0.808676
0.779744
0.751205
0.723076
0.695379
0.668136
0.641367
0.615091
0.589326
0.564087
0.539389
0.515246
0.491671
0.468677
0.446274
0.424472
0.403277
0.382699
0.36274
0.343407
0.324702
0.306625
0.289178
0.27236
0.256167
0.240597
0.225644
0.211302
0.197564
0.184422
0.171865
0.159884
0.148466
0.137598
0.127268
0.11746
0.108159
0.0993487
0.091012
0.083131
0.0756872
0.0686613
0.0620335
0.055783
0.0498887
0.0443285
0.0390797
0.0341189
0.0294215
0.0249624
0.0207132
0.016651
0.0127287
0.00897096
0.00517052
0.00195428
3.23356
3.22837
3.2225
3.21655
3.21061
3.20453
3.19825
3.19179
3.18516
3.17836
3.17138
3.16422
3.15686
3.14931
3.14156
3.1336
3.12544
3.11705
3.10845
3.09962
3.09056
3.08125
3.07171
3.06191
3.05186
3.04155
3.03097
3.02012
3.00898
2.99756
2.98584
2.97383
2.96151
2.94888
2.93593
2.92265
2.90904
2.89509
2.8808
2.86615
2.85115
2.83579
2.82005
2.80394
2.78744
2.77055
2.75327
2.73559
2.7175
2.699
2.68008
2.66074
2.64098
2.62078
2.60015
2.57908
2.55757
2.53561
2.51321
2.49035
2.46705
2.44329
2.41908
2.39442
2.36931
2.34374
2.31772
2.29126
2.26436
2.23701
2.20923
2.18102
2.15239
2.12334
2.09389
2.06403
2.03378
2.00316
1.97217
1.94082
1.90913
1.87712
1.84479
1.81216
1.77926
1.74609
1.71268
1.67905
1.64521
1.6112
1.57702
1.54271
1.50828
1.47376
1.43917
1.40455
1.36991
1.33529
1.30071
1.26618
1.23175
1.19744
1.16327
1.12928
1.0955
1.06195
1.02866
0.995637
0.962925
0.930549
0.898537
0.866916
0.835707
0.804932
0.774614
0.744773
0.715432
0.686613
0.658335
0.630618
0.603476
0.576926
0.550982
0.525657
0.500964
0.476913
0.453515
0.430777
0.408705
0.387306
0.366582
0.346537
0.327172
0.308486
0.290478
0.273145
0.256482
0.240484
0.225143
0.210453
0.196403
0.182983
0.17018
0.157984
0.146378
0.13535
0.124882
0.114959
0.105562
0.0966734
0.0882739
0.0803434
0.0728613
0.0658061
0.0591556
0.0528871
0.0469769
0.0414007
0.0361331
0.0311477
0.0264177
0.021912
0.0176069
0.0134481
0.00947264
0.00542453
0.002099
3.47901
3.47346
3.4672
3.46088
3.45456
3.4481
3.44141
3.43452
3.42746
3.42021
3.41276
3.40511
3.39725
3.38918
3.3809
3.37239
3.36364
3.35467
3.34545
3.33598
3.32626
3.31628
3.30604
3.29552
3.28472
3.27364
3.26226
3.25058
3.23859
3.22629
3.21367
3.20072
3.18744
3.17382
3.15984
3.14551
3.13082
3.11575
3.1003
3.08447
3.06825
3.05163
3.0346
3.01715
2.99929
2.981
2.96228
2.94311
2.92351
2.90345
2.88293
2.86195
2.84051
2.81859
2.7962
2.77332
2.74997
2.72612
2.70179
2.67697
2.65165
2.62584
2.59954
2.57274
2.54546
2.51768
2.48941
2.46066
2.43142
2.40171
2.37153
2.34088
2.30978
2.27823
2.24624
2.21383
2.18099
2.14775
2.11412
2.0801
2.04573
2.01101
1.97596
1.94059
1.90494
1.86901
1.83283
1.79642
1.75981
1.72301
1.68605
1.64896
1.61175
1.57447
1.53713
1.49977
1.4624
1.42507
1.3878
1.35061
1.31354
1.27661
1.23986
1.20331
1.16701
1.13097
1.09522
1.05978
1.0247
0.989986
0.955683
0.921813
0.888401
0.855469
0.82304
0.791136
0.759781
0.728998
0.698806
0.669225
0.640269
0.611957
0.584301
0.557316
0.531014
0.505406
0.480501
0.456307
0.432831
0.410076
0.388048
0.366747
0.346175
0.32633
0.307211
0.288813
0.271131
0.25416
0.237891
0.222315
0.207422
0.1932
0.179637
0.166719
0.154431
0.142757
0.131679
0.121181
0.111243
0.101846
0.0929692
0.0845909
0.0766894
0.0692417
0.0622244
0.0556131
0.0493825
0.0435068
0.0379591
0.0327112
0.0277345
0.0229956
0.01847
0.0140964
0.00992485
0.00564858
0.00223773
3.72881
3.72285
3.71613
3.70937
3.70263
3.69571
3.68855
3.68117
3.6736
3.66583
3.65785
3.64964
3.64121
3.63255
3.62365
3.61451
3.60511
3.59546
3.58555
3.57537
3.56491
3.55416
3.54313
3.5318
3.52016
3.50821
3.49595
3.48335
3.47042
3.45714
3.44352
3.42954
3.41519
3.40047
3.38537
3.36987
3.35398
3.33769
3.32098
3.30385
3.28629
3.2683
3.24986
3.23097
3.21162
3.1918
3.17152
3.15075
3.1295
3.10776
3.08551
3.06277
3.03952
3.01575
2.99146
2.96666
2.94133
2.91547
2.88908
2.86215
2.83469
2.8067
2.77818
2.74912
2.71953
2.68941
2.65876
2.62759
2.59591
2.56371
2.53101
2.49781
2.46413
2.42997
2.39534
2.36025
2.32472
2.28877
2.2524
2.21563
2.17848
2.14097
2.10312
2.06495
2.02648
1.98773
1.94872
1.90949
1.87004
1.83042
1.79065
1.75076
1.71076
1.6707
1.63059
1.59049
1.5504
1.51038
1.47043
1.4306
1.39091
1.3514
1.3121
1.27304
1.23427
1.1958
1.15765
1.11987
1.08248
1.04551
1.00899
0.972956
0.937427
0.902427
0.867979
0.834107
0.800835
0.768186
0.73618
0.704836
0.67417
0.644198
0.614934
0.586393
0.558585
0.531523
0.505214
0.479665
0.454884
0.430873
0.407637
0.385175
0.363489
0.342577
0.322434
0.303058
0.284442
0.266578
0.249458
0.233072
0.217408
0.202455
0.188197
0.174622
0.161711
0.149449
0.137818
0.126797
0.116368
0.106509
0.0971992
0.0884151
0.0801337
0.0723309
0.0649818
0.0580605
0.0515407
0.0453949
0.0395947
0.0341103
0.0289116
0.023963
0.0192397
0.0146727
0.0103266
0.00584148
0.00236878
3.97925
3.97287
3.96568
3.95847
3.95128
3.94389
3.93624
3.92836
3.92027
3.91197
3.90343
3.89465
3.88562
3.87635
3.86681
3.85701
3.84694
3.8366
3.82596
3.81504
3.80381
3.79227
3.78041
3.76824
3.75573
3.74288
3.72969
3.71613
3.70222
3.68792
3.67325
3.65819
3.64273
3.62687
3.61058
3.59388
3.57673
3.55915
3.54112
3.52263
3.50368
3.48425
3.46433
3.44393
3.42302
3.40161
3.37969
3.35724
3.33427
3.31076
3.28672
3.26212
3.23698
3.21127
3.18501
3.15818
3.13079
3.10282
3.07428
3.04516
3.01547
2.9852
2.95436
2.92294
2.89095
2.8584
2.82528
2.7916
2.75737
2.7226
2.68729
2.65145
2.61509
2.57823
2.54087
2.50304
2.46474
2.42599
2.38681
2.34722
2.30724
2.26688
2.22617
2.18514
2.1438
2.10218
2.0603
2.01821
1.97591
1.93344
1.89084
1.84812
1.80532
1.76248
1.71962
1.67677
1.63398
1.59128
1.54869
1.50624
1.46397
1.42192
1.38012
1.33861
1.29742
1.25658
1.21611
1.17605
1.13642
1.09727
1.05862
1.02051
0.98295
0.945971
0.909597
0.873852
0.838759
0.804342
0.770621
0.737613
0.705336
0.673805
0.643034
0.613037
0.583824
0.555406
0.527791
0.500985
0.474994
0.449821
0.425469
0.401937
0.379225
0.35733
0.336249
0.315975
0.296502
0.277822
0.259924
0.242798
0.226432
0.210812
0.195923
0.181749
0.168274
0.155478
0.143343
0.131849
0.120975
0.110699
0.100997
0.0918458
0.0832214
0.0750981
0.0674498
0.0602494
0.0534692
0.0470804
0.0410534
0.0353568
0.0299591
0.0248227
0.0199225
0.0151824
0.0106818
0.00600592
0.0024929
4.23416
4.22732
4.2196
4.21188
4.2042
4.19629
4.1881
4.17966
4.17099
4.16209
4.15293
4.14351
4.13383
4.12387
4.11364
4.10312
4.0923
4.08119
4.06976
4.05801
4.04594
4.03352
4.02077
4.00767
3.9942
3.98037
3.96616
3.95156
3.93656
3.92116
3.90534
3.8891
3.87243
3.85532
3.83775
3.81972
3.80122
3.78224
3.76278
3.74281
3.72235
3.70136
3.67985
3.65781
3.63522
3.61209
3.5884
3.56415
3.53932
3.51392
3.48793
3.46135
3.43418
3.4064
3.37802
3.34903
3.31943
3.28921
3.25838
3.22693
3.19486
3.16217
3.12887
3.09496
3.06043
3.0253
2.98957
2.95325
2.91634
2.87886
2.8408
2.8022
2.76304
2.72336
2.68316
2.64246
2.60128
2.55964
2.51755
2.47504
2.43212
2.38883
2.34518
2.30121
2.25693
2.21238
2.16758
2.12257
2.07738
2.03203
1.98656
1.941
1.89538
1.84974
1.80412
1.75854
1.71306
1.66769
1.62247
1.57744
1.53263
1.48808
1.44383
1.39992
1.35637
1.31322
1.27049
1.22822
1.18644
1.14519
1.1045
1.06439
1.02489
0.986033
0.947829
0.910309
0.873497
0.837414
0.802081
0.767515
0.733732
0.700747
0.668573
0.637224
0.606709
0.577038
0.548219
0.520256
0.493154
0.466916
0.441543
0.417033
0.393386
0.370597
0.348662
0.327574
0.307325
0.287905
0.269304
0.251511
0.23451
0.218289
0.202831
0.188119
0.174135
0.16086
0.148274
0.136355
0.125082
0.11443
0.104378
0.0948985
0.0859672
0.0775574
0.0696417
0.062192
0.0551794
0.0485739
0.0423447
0.036459
0.0308843
0.0255808
0.0205238
0.0156295
0.0109934
0.00614383
0.00261043
4.49138
4.48404
4.47576
4.46752
4.45931
4.45086
4.44209
4.43305
4.42377
4.41424
4.40443
4.39434
4.38396
4.37329
4.36231
4.35103
4.33942
4.32749
4.31522
4.3026
4.28963
4.2763
4.26259
4.2485
4.23403
4.21915
4.20386
4.18815
4.17201
4.15543
4.1384
4.12091
4.10295
4.08451
4.06559
4.04616
4.02622
4.00576
3.98477
3.96325
3.94117
3.91854
3.89534
3.87156
3.84719
3.82224
3.79668
3.77051
3.74373
3.71632
3.68828
3.6596
3.63028
3.60032
3.5697
3.53843
3.5065
3.47392
3.44067
3.40676
3.3722
3.33697
3.30109
3.26455
3.22737
3.18955
3.15109
3.112
3.0723
3.03199
2.99109
2.9496
2.90754
2.86494
2.82179
2.77813
2.73398
2.68935
2.64426
2.59875
2.55283
2.50653
2.45988
2.41291
2.36564
2.31811
2.27035
2.22239
2.17426
2.12601
2.07765
2.02924
1.9808
1.93237
1.884
1.83571
1.78754
1.73954
1.69174
1.64416
1.59686
1.54986
1.50322
1.45696
1.41112
1.36573
1.32082
1.27643
1.23258
1.18932
1.14667
1.10467
1.06333
1.02268
0.982751
0.943559
0.90513
0.867486
0.830646
0.794627
0.759443
0.725109
0.691638
0.659041
0.627328
0.596506
0.566583
0.537562
0.509446
0.482237
0.455935
0.430539
0.406044
0.382447
0.359741
0.337918
0.31697
0.296885
0.277653
0.25926
0.241692
0.224932
0.208965
0.193772
0.179334
0.165632
0.152643
0.140345
0.128716
0.117732
0.107367
0.0975962
0.0883923
0.079728
0.071575
0.0639042
0.0566855
0.049888
0.0434797
0.0374266
0.0316954
0.0262443
0.0210491
0.0160183
0.0112644
0.00625715
0.00272171
4.75325
4.74536
4.73648
4.72766
4.71888
4.70982
4.70043
4.69075
4.6808
4.67058
4.66006
4.64924
4.6381
4.62665
4.61487
4.60275
4.59028
4.57746
4.56428
4.55072
4.53677
4.52244
4.50769
4.49254
4.47696
4.46095
4.4445
4.42758
4.4102
4.39235
4.374
4.35516
4.33582
4.31595
4.29555
4.27461
4.25311
4.23106
4.20843
4.18522
4.16141
4.13701
4.11199
4.08634
4.06006
4.03315
4.00558
3.97736
3.94847
3.91891
3.88868
3.85776
3.82615
3.79384
3.76084
3.72714
3.69274
3.65763
3.62181
3.5853
3.54808
3.51016
3.47155
3.43224
3.39225
3.35158
3.31025
3.26826
3.22562
3.18234
3.13845
3.09395
3.04886
3.0032
2.95699
2.91026
2.86301
2.81529
2.76711
2.71849
2.66948
2.62009
2.57036
2.52032
2.46999
2.41943
2.36865
2.3177
2.26661
2.21542
2.16416
2.11288
2.06162
2.0104
1.95927
1.90828
1.85746
1.80686
1.7565
1.70642
1.65667
1.60728
1.5583
1.50977
1.46171
1.41416
1.36715
1.32071
1.27489
1.2297
1.18519
1.14139
1.0983
1.05597
1.01442
0.973656
0.933716
0.894617
0.856376
0.81901
0.782532
0.746956
0.712292
0.678552
0.645743
0.613872
0.582944
0.552963
0.52393
0.495844
0.468706
0.442511
0.417256
0.392934
0.369538
0.34706
0.325488
0.304812
0.285018
0.266092
0.24802
0.230783
0.214365
0.198747
0.183907
0.169826
0.156482
0.14385
0.131908
0.120629
0.10999
0.0999613
0.0905172
0.0816288
0.073267
0.0654015
0.0580016
0.0510352
0.0444695
0.0382694
0.0324008
0.0268201
0.0215039
0.0163532
0.0114979
0.0063478
0.00282717
5.01857
5.01011
5.00058
4.99114
4.98175
4.97206
4.962
4.95163
4.94097
4.93002
4.91874
4.90714
4.8952
4.88291
4.87027
4.85726
4.84388
4.83011
4.81595
4.80139
4.78641
4.771
4.75515
4.73886
4.72211
4.70489
4.68719
4.669
4.65029
4.63108
4.61133
4.59105
4.57022
4.54883
4.52686
4.50431
4.48115
4.4574
4.43302
4.40801
4.38236
4.35607
4.32911
4.30148
4.27316
4.24416
4.21446
4.18406
4.15294
4.12109
4.08852
4.05522
4.02118
3.9864
3.95087
3.9146
3.87757
3.8398
3.80128
3.76201
3.72199
3.68124
3.63975
3.59753
3.5546
3.51095
3.4666
3.42157
3.37586
3.32949
3.28248
3.23484
3.18661
3.13778
3.0884
3.03848
2.98805
2.93714
2.88577
2.83398
2.78179
2.72924
2.67636
2.62319
2.56977
2.51612
2.46229
2.40832
2.35424
2.3001
2.24594
2.19179
2.1377
2.08371
2.02986
1.97619
1.92275
1.86958
1.81672
1.76419
1.71205
1.66034
1.60909
1.55835
1.50815
1.45852
1.4095
1.36111
1.3134
1.26639
1.22012
1.17461
1.12989
1.08598
1.0429
1.00068
0.95934
0.918893
0.87936
0.840755
0.80309
0.766377
0.730625
0.695845
0.662043
0.629223
0.59739
0.566545
0.536688
0.507818
0.479932
0.453026
0.427094
0.402129
0.378122
0.355063
0.332941
0.311742
0.291454
0.27206
0.253544
0.235889
0.219075
0.203083
0.187893
0.173481
0.159825
0.146901
0.134685
0.12315
0.112269
0.102017
0.0923629
0.083279
0.074735
0.0666998
0.0591418
0.0520282
0.0453252
0.038997
0.0330087
0.0273151
0.0218939
0.0166383
0.011697
0.00641765
0.00292733
5.28875
5.27966
5.26945
5.25934
5.24929
5.23891
5.22813
5.21701
5.2056
5.19385
5.18176
5.16931
5.1565
5.14331
5.12974
5.11578
5.10141
5.08663
5.07142
5.05577
5.03967
5.0231
5.00607
4.98855
4.97054
4.95202
4.93297
4.9134
4.89327
4.87259
4.85134
4.82951
4.80708
4.78405
4.76039
4.7361
4.71117
4.68558
4.65933
4.63239
4.60477
4.57644
4.5474
4.51764
4.48715
4.45591
4.42393
4.39119
4.35768
4.3234
4.28834
4.2525
4.21587
4.17844
4.14023
4.10122
4.06141
4.0208
3.97941
3.93722
3.89425
3.8505
3.80597
3.76068
3.71464
3.66785
3.62034
3.57211
3.52319
3.47358
3.42332
3.37241
3.32089
3.26878
3.2161
3.16289
3.10916
3.05496
3.00031
2.94525
2.8898
2.83402
2.77793
2.72157
2.66499
2.60822
2.5513
2.49427
2.43719
2.38008
2.323
2.26599
2.20909
2.15234
2.09578
2.03948
1.98346
1.92777
1.87245
1.81753
1.76306
1.70909
1.65565
1.60278
1.55053
1.49891
1.44796
1.39771
1.34821
1.29948
1.25154
1.20444
1.15819
1.11281
1.06832
1.02474
0.982103
0.940417
0.8997
0.859962
0.821216
0.783471
0.746736
0.711018
0.676322
0.642652
0.61001
0.578395
0.547805
0.51824
0.489693
0.46216
0.435632
0.410102
0.38556
0.361993
0.33939
0.317736
0.297017
0.277216
0.258315
0.240296
0.22314
0.206825
0.19133
0.176631
0.162706
0.14953
0.137077
0.12532
0.114232
0.103785
0.0939506
0.0846978
0.0759964
0.0678147
0.0601202
0.0528793
0.0460577
0.0396188
0.033527
0.0277359
0.0222244
0.0168778
0.0118646
0.0064684
0.00302267
5.56315
5.55341
5.54245
5.53164
5.52089
5.50978
5.49823
5.48632
5.47408
5.4615
5.44854
5.43519
5.42145
5.4073
5.39275
5.37776
5.36234
5.34647
5.33013
5.31333
5.29603
5.27824
5.25994
5.24111
5.22175
5.20183
5.18136
5.16031
5.13866
5.11641
5.09355
5.07006
5.04593
5.02115
4.99569
4.96955
4.94272
4.91518
4.88692
4.85792
4.82819
4.7977
4.76645
4.73442
4.7016
4.66799
4.63357
4.59834
4.56229
4.52542
4.48772
4.44918
4.4098
4.36957
4.32851
4.2866
4.24384
4.20025
4.15582
4.11055
4.06446
4.01755
3.96983
3.92132
3.87202
3.82195
3.77112
3.71956
3.66727
3.6143
3.56064
3.50634
3.45142
3.3959
3.33982
3.2832
3.22608
3.16849
3.11048
3.05206
2.9933
2.93421
2.87485
2.81526
2.75548
2.69555
2.63552
2.57543
2.51533
2.45526
2.39527
2.3354
2.27571
2.21623
2.15701
2.09811
2.03956
1.9814
1.92369