/*--------------------------------*- C++ -*----------------------------------*\
  =========                 |
  \\      /  F ield         | OpenFOAM: The Open Source CFD Toolbox
   \\    /   O peration     | Website:  https://openfoam.org
    \\  /    A nd           | Version:  13
     \\/     M anipulation  |
\*---------------------------------------------------------------------------*/
FoamFile
{
    format      ascii;
    class       surfaceScalarField;
    location    "0.3";
    object      phi;
}
// * * * * * * * * * * * * * * * * * * * * * * * * * * * * * * * * * * * * * //

dimensions      [0 3 -1 0 0 0 0];

internalField   nonuniform List<scalar> 
137229
(
14.3657
-0.000427437
-14.3685
14.3628
-0.000436724
14.3599
-0.000446351
14.357
-0.000456189
14.354
-0.000466307
14.3509
-0.000476737
14.3477
-0.00048743
14.3445
-0.00049848
14.3413
-0.000509829
14.3379
-0.000521499
14.3345
-0.000533466
14.3311
-0.000545847
14.3276
-0.000558553
14.324
-0.000571686
14.3203
-0.000585222
14.3166
-0.000599026
14.3128
-0.000613197
14.3089
-0.00062773
14.3049
-0.000642715
14.3009
-0.000658316
14.2967
-0.000674466
14.2925
-0.000691065
14.2883
-0.000707951
14.2839
-0.000725055
14.2794
-0.000742545
14.2749
-0.000760707
14.2703
-0.000779748
14.2655
-0.000799598
14.2607
-0.000819989
14.2558
-0.000840633
14.2508
-0.000861399
14.2457
-0.000882612
14.2405
-0.000904545
14.2351
-0.000927481
14.2297
-0.000951504
14.2242
-0.00097618
14.2185
-0.00100134
14.2128
-0.00102684
14.2069
-0.00105273
14.2009
-0.0010794
14.1948
-0.00110696
14.1886
-0.00113555
14.1822
-0.00116499
14.1758
-0.00119508
14.1692
-0.00122589
14.1624
-0.00125732
14.1555
-0.00128956
14.1485
-0.00132266
14.1414
-0.0013567
14.1341
-0.00139157
14.1266
-0.00142734
14.119
-0.00146394
14.1113
-0.00150142
14.1034
-0.00153977
14.0953
-0.00157905
14.0871
-0.00161925
14.0787
-0.00166037
14.0701
-0.00170246
14.0613
-0.00174544
14.0524
-0.00178938
14.0433
-0.0018343
14.034
-0.00188011
14.0246
-0.00192697
14.0149
-0.00197472
14.005
-0.00202345
13.995
-0.00207316
13.9847
-0.0021238
13.9742
-0.0021754
13.9635
-0.00222795
13.9526
-0.00228143
13.9415
-0.00233584
13.9302
-0.00239113
13.9186
-0.00244733
13.9067
-0.00250445
13.8947
-0.00256241
13.8824
-0.00262118
13.8698
-0.0026808
13.857
-0.00274112
13.8439
-0.00280223
13.8305
-0.0028641
13.8169
-0.00292667
13.803
-0.00298987
13.7888
-0.00305358
13.7743
-0.00311772
13.7595
-0.00318237
13.7444
-0.00324756
13.729
-0.00331337
13.7133
-0.00337952
13.6973
-0.00344575
13.6809
-0.00351164
13.6642
-0.00357736
13.6471
-0.00364332
13.6297
-0.00370982
13.6119
-0.00377686
13.5938
-0.00384358
13.5753
-0.00390905
13.5564
-0.00397279
13.5371
-0.00403537
13.5174
-0.00409787
13.4973
-0.00416118
13.4768
-0.00422493
13.4558
-0.00428756
13.4344
-0.00434732
13.4126
-0.00440357
13.3903
-0.00445708
13.3676
-0.00450965
13.3444
-0.00456237
13.3206
-0.00461497
13.2964
-0.00466579
13.2717
-0.00471285
13.2465
-0.00475533
13.2208
-0.00479369
13.1945
-0.00482913
13.1676
-0.00486257
13.1402
-0.00489388
13.1122
-0.00492215
13.0836
-0.00494607
13.0544
-0.00496499
13.0246
-0.00497886
12.9942
-0.00498793
12.9632
-0.00499242
12.9314
-0.00499223
12.899
-0.00498687
12.866
-0.00497585
12.8322
-0.00495873
12.7977
-0.00493527
12.7624
-0.00490525
12.7265
-0.00486847
12.6897
-0.0048247
12.6522
-0.00477356
12.6139
-0.00471479
12.5747
-0.00464796
12.5347
-0.00457279
12.4939
-0.00448905
12.4522
-0.00439631
12.4096
-0.00429428
12.3661
-0.0041826
12.3216
-0.00406099
12.2762
-0.00392901
12.2298
-0.00378633
12.1825
-0.0036326
12.1341
-0.00346745
12.0846
-0.00329047
12.0341
-0.00310128
11.9825
-0.00289951
11.9298
-0.00268474
11.876
-0.00245654
11.8209
-0.00221448
11.7647
-0.00195817
11.7073
-0.00168711
11.6486
-0.00140087
11.5887
-0.00109897
11.5274
-0.000780946
11.4648
-0.000446287
11.4008
-9.44749e-05
11.3355
0.000275044
11.2687
0.000662741
11.2004
0.00106934
11.1307
0.00149524
11.0594
0.00194128
10.9866
0.00240793
10.9122
0.00289595
10.8361
0.00340604
10.7584
0.00393896
10.679
0.00449542
10.5978
0.0050764
0.00568252
13.6793
0.00213081
-13.6819
13.6767
0.00217182
13.674
0.00221361
13.6713
0.00225621
13.6686
0.00229962
13.6657
0.00234385
13.6629
0.00238888
13.6599
0.00243476
13.6569
0.0024815
13.6539
0.00252908
13.6508
0.0025776
13.6476
0.00262704
13.6444
0.00267739
13.6411
0.0027286
13.6377
0.00278078
13.6343
0.00283401
13.6308
0.0028883
13.6272
0.00294365
13.6236
0.00299998
13.6198
0.00305722
13.6161
0.00311539
13.6122
0.00317466
13.6082
0.00323527
13.6042
0.00329722
13.6001
0.00336051
13.5959
0.00342471
13.5917
0.00348985
13.5873
0.00355588
13.5829
0.00362317
13.5783
0.00369207
13.5737
0.00376272
13.569
0.00383489
13.5642
0.00390825
13.5593
0.00398258
13.5543
0.0040579
13.5492
0.00413457
13.5439
0.004213
13.5386
0.00429328
13.5332
0.00437533
13.5276
0.00445896
13.522
0.0045439
13.5162
0.00463026
13.5103
0.00471819
13.5043
0.00480789
13.4982
0.00489949
13.492
0.004993
13.4856
0.00508838
13.4791
0.00518556
13.4724
0.00528461
13.4657
0.00538559
13.4588
0.00548857
13.4517
0.00559365
13.4445
0.00570089
13.4371
0.00581028
13.4296
0.00592193
13.422
0.00603584
13.4142
0.00615209
13.4062
0.00627079
13.3981
0.00639191
13.3898
0.00651559
13.3813
0.00664193
13.3726
0.00677093
13.3638
0.00690271
13.3548
0.00703733
13.3456
0.00717489
13.3362
0.00731546
13.3266
0.00745912
13.3168
0.007606
13.3069
0.0077562
13.2967
0.00790976
13.2863
0.00806684
13.2756
0.00822756
13.2648
0.00839197
13.2537
0.00856024
13.2424
0.00873249
13.2309
0.00890886
13.2191
0.00908945
13.2071
0.00927445
13.1949
0.00946397
13.1823
0.00965809
13.1696
0.00985704
13.1565
0.010061
13.1432
0.0102702
13.1296
0.0104848
13.1157
0.010705
13.1015
0.0109307
13.087
0.0111621
13.0723
0.0113996
13.0572
0.0116436
13.0418
0.0118946
13.026
0.0121526
13.01
0.0124175
12.9936
0.0126889
12.9768
0.0129672
12.9597
0.0132532
12.9423
0.0135482
12.9244
0.0138527
12.9062
0.0141665
12.8877
0.0144886
12.8687
0.0148181
12.8493
0.0151558
12.8295
0.0155033
12.8093
0.0158627
12.7887
0.0162348
12.7676
0.0166191
12.7461
0.0170139
12.7241
0.0174182
12.7016
0.0178327
12.6787
0.0182592
12.6553
0.0187
12.6314
0.0191562
12.607
0.0196275
12.582
0.020113
12.5565
0.0206119
12.5305
0.0211246
12.504
0.0216525
12.4768
0.022197
12.4491
0.0227591
12.4208
0.0233393
12.3918
0.0239373
12.3623
0.0245534
12.3321
0.0251881
12.3013
0.025842
12.2698
0.026516
12.2376
0.027211
12.2048
0.0279274
12.1712
0.0286659
12.1369
0.029427
12.1019
0.0302114
12.0661
0.0310197
12.0295
0.0318526
11.9921
0.0327111
11.954
0.0335956
11.915
0.034507
11.8751
0.0354461
11.8344
0.0364134
11.7928
0.03741
11.7503
0.0384366
11.7069
0.039494
11.6625
0.0405831
11.6172
0.0417046
11.5709
0.0428595
11.5235
0.0440488
11.4752
0.0452732
11.4257
0.0465338
11.3752
0.0478315
11.3236
0.0491673
11.2708
0.0505421
11.2169
0.0519571
11.1618
0.0534133
11.1055
0.0549117
11.048
0.0564535
10.9891
0.0580398
10.929
0.0596718
10.8676
0.0613507
10.8048
0.0630777
10.7406
0.0648541
10.675
0.0666812
10.6079
0.0685603
10.5393
0.0704929
10.4693
0.0724804
10.3976
0.0745243
10.3244
0.0766261
10.2496
0.0787876
10.1731
0.0810102
10.0948
0.0832968
0.0856457
13.0211
0.00446673
-13.0234
13.0187
0.00455444
13.0163
0.00464388
13.0138
0.00473511
13.0113
0.00482818
13.0087
0.00492308
13.0061
0.00501986
13.0034
0.00511861
13.0006
0.00521927
12.9978
0.00532198
12.995
0.00542677
12.9921
0.00553367
12.9891
0.00564264
12.9861
0.00575381
12.983
0.00586714
12.9799
0.0059828
12.9766
0.0061009
12.9734
0.00622137
12.97
0.0063442
12.9666
0.00646937
12.9631
0.00659687
12.9596
0.00672702
12.956
0.00685991
12.9523
0.00699578
12.9485
0.00713446
12.9446
0.00727577
12.9407
0.00741951
12.9367
0.00756593
12.9326
0.00771528
12.9284
0.00786801
12.9242
0.00802423
12.9198
0.00818386
12.9154
0.00834651
12.9108
0.00851202
12.9062
0.00868051
12.9015
0.00885232
12.8967
0.00902794
12.8918
0.00920745
12.8868
0.00939092
12.8816
0.00957808
12.8764
0.0097688
12.8711
0.00996322
12.8656
0.0101615
12.8601
0.0103639
12.8544
0.0105707
12.8486
0.0107818
12.8427
0.0109973
12.8367
0.0112173
12.8305
0.0114417
12.8242
0.0116707
12.8178
0.0119046
12.8113
0.0121433
12.8046
0.0123871
12.7978
0.0126359
12.7908
0.0128901
12.7837
0.0131496
12.7764
0.0134145
12.769
0.0136851
12.7614
0.0139615
12.7537
0.0142438
12.7458
0.0145321
12.7378
0.0148266
12.7295
0.0151275
12.7211
0.0154348
12.7126
0.0157489
12.7038
0.0160698
12.6949
0.0163978
12.6857
0.0167329
12.6764
0.0170754
12.6669
0.0174256
12.6572
0.0177835
12.6473
0.0181493
12.6371
0.0185234
12.6268
0.0189059
12.6162
0.0192971
12.6054
0.0196971
12.5944
0.0201063
12.5832
0.0205248
12.5717
0.020953
12.5599
0.021391
12.548
0.0218391
12.5357
0.0222977
12.5232
0.0227672
12.5105
0.0232478
12.4974
0.0237397
12.4841
0.0242431
12.4705
0.0247584
12.4566
0.0252859
12.4425
0.0258264
12.428
0.0263804
12.4132
0.0269481
12.3981
0.0275294
12.3826
0.0281242
12.3669
0.028733
12.3508
0.0293569
12.3343
0.0299973
12.3175
0.0306548
12.3003
0.0313293
12.2828
0.0320199
12.2649
0.0327263
12.2466
0.0334491
12.2279
0.0341905
12.2088
0.0349525
12.1893
0.0357362
12.1694
0.036541
12.1491
0.0373655
12.1283
0.0382092
12.107
0.0390728
12.0853
0.0399586
12.0632
0.040869
12.0405
0.0418053
12.0174
0.0427672
11.9937
0.0437543
11.9696
0.0447658
11.9449
0.0458028
11.9197
0.0468666
11.8939
0.0479592
11.8676
0.0490817
11.8407
0.0502347
11.8132
0.0514185
11.7851
0.0526334
11.7565
0.0538804
11.7271
0.0551604
11.6972
0.0564747
11.6666
0.0578242
11.6353
0.0592101
11.6033
0.0606331
11.5706
0.0620942
11.5373
0.0635944
11.5031
0.0651347
11.4683
0.0667163
11.4327
0.0683403
11.3962
0.0700078
11.359
0.07172
11.321
0.0734779
11.2821
0.0752829
11.2424
0.0771361
11.2018
0.0790388
11.1603
0.0809923
11.1179
0.0829979
11.0745
0.085057
11.0302
0.0871708
10.9849
0.0893409
10.9386
0.0915687
10.8913
0.0938556
10.8429
0.0962031
10.7935
0.0986127
10.743
0.101086
10.6913
0.103625
10.6385
0.106231
10.5845
0.108905
10.5293
0.11165
10.4728
0.114467
10.4152
0.117359
10.3562
0.120326
10.2959
0.123371
10.2342
0.126496
10.1712
0.129703
10.1068
0.132993
10.0409
0.13637
9.97356
0.139836
9.9047
0.143392
9.83428
0.147041
9.76228
0.150785
9.68867
0.154628
9.61339
0.158571
0.162618
12.3967
0.00660289
-12.3989
12.3945
0.00673399
12.3923
0.00686771
12.3901
0.00700422
12.3877
0.00714348
12.3854
0.00728558
12.383
0.00743058
12.3805
0.00757853
12.378
0.0077295
12.3754
0.00788362
12.3728
0.00804085
12.3702
0.00820133
12.3674
0.00836504
12.3647
0.00853208
12.3618
0.0087025
12.3589
0.00887653
12.356
0.00905416
12.353
0.00923553
12.3499
0.0094205
12.3467
0.00960915
12.3435
0.00980157
12.3403
0.00999789
12.3369
0.0101985
12.3335
0.0104035
12.33
0.0106128
12.3265
0.0108263
12.3229
0.0110437
12.3192
0.0112654
12.3154
0.0114917
12.3115
0.011723
12.3076
0.0119596
12.3036
0.0122012
12.2995
0.0124477
12.2953
0.0126988
12.291
0.0129548
12.2867
0.013216
12.2822
0.0134829
12.2777
0.0137557
12.273
0.0140345
12.2683
0.014319
12.2634
0.0146093
12.2585
0.0149054
12.2534
0.0152075
12.2483
0.0155161
12.243
0.0158313
12.2377
0.0161533
12.2322
0.0164821
12.2266
0.0168177
12.2209
0.0171604
12.215
0.0175103
12.209
0.0178676
12.203
0.0182325
12.1967
0.0186052
12.1904
0.0189858
12.1839
0.0193746
12.1773
0.0197717
12.1705
0.0201773
12.1636
0.0205915
12.1566
0.0210148
12.1494
0.0214471
12.142
0.0218888
12.1345
0.0223401
12.1268
0.0228011
12.119
0.0232723
12.111
0.0237537
12.1028
0.0242456
12.0944
0.0247483
12.0859
0.0252621
12.0772
0.0257873
12.0683
0.026324
12.0592
0.0268727
12.0499
0.0274335
12.0405
0.0280069
12.0308
0.0285931
12.0209
0.0291925
12.0108
0.0298053
12.0004
0.030432
11.9899
0.031073
11.9791
0.0317284
11.9681
0.0323988
11.9569
0.0330845
11.9454
0.0337859
11.9336
0.0345036
11.9216
0.0352379
11.9094
0.0359892
11.8969
0.0367578
11.8841
0.0375442
11.871
0.0383489
11.8577
0.0391727
11.844
0.0400163
11.8301
0.0408801
11.8159
0.0417642
11.8013
0.0426685
11.7865
0.0435937
11.7713
0.0445412
11.7558
0.0455124
11.7399
0.0465082
11.7237
0.0475284
11.7072
0.0485725
11.6903
0.0496402
11.673
0.0507326
11.6553
0.0518519
11.6373
0.0530005
11.6188
0.0541793
11.6
0.0553881
11.5807
0.0566256
11.561
0.0578914
11.5409
0.0591869
11.5204
0.0605144
11.4994
0.0618765
11.4779
0.0632747
11.4559
0.0647089
11.4335
0.0661787
11.4106
0.0676839
11.3872
0.0692258
11.3632
0.070806
11.3388
0.0724267
11.3138
0.0740893
11.2882
0.0757946
11.2621
0.0775431
11.2354
0.0793357
11.2081
0.0811733
11.1802
0.0830574
11.1517
0.0849896
11.1225
0.0869711
11.0927
0.0890033
11.0623
0.0910873
11.0311
0.0932245
10.9993
0.0954161
10.9668
0.0976637
10.9335
0.0999687
10.8996
0.102333
10.8648
0.104757
10.8293
0.107243
10.793
0.109793
10.7558
0.112408
10.7179
0.11509
10.6791
0.11784
10.6394
0.120661
10.5989
0.123553
10.5574
0.12652
10.515
0.129562
10.4717
0.132681
10.4274
0.135881
10.382
0.139161
10.3357
0.142526
10.2884
0.145976
10.2399
0.149513
10.1904
0.153141
10.1398
0.156861
10.088
0.160675
10.0351
0.164587
9.98096
0.168597
9.9256
0.172709
9.869
0.176926
9.81113
0.181249
9.75194
0.185682
9.69142
0.190228
9.62952
0.194888
9.56622
0.199666
9.50149
0.204566
9.4353
0.209589
9.3676
0.21474
9.29836
0.220022
9.22755
0.225437
9.15513
0.23099
0.236684
11.8011
0.00855999
-11.8031
11.7991
0.00873131
11.7971
0.00890623
11.795
0.00908473
11.7929
0.00926695
11.7907
0.0094529
11.7885
0.00964273
11.7862
0.00983651
11.7839
0.0100342
11.7816
0.0102362
11.7792
0.0104422
11.7767
0.0106526
11.7742
0.0108673
11.7717
0.0110864
11.769
0.01131
11.7664
0.0115384
11.7637
0.0117717
11.7609
0.0120097
11.7581
0.0122528
11.7552
0.0125007
11.7522
0.0127536
11.7492
0.0130119
11.7461
0.0132757
11.743
0.0135454
11.7398
0.0138207
11.7365
0.0141016
11.7332
0.0143881
11.7297
0.0146802
11.7263
0.0149785
11.7227
0.0152835
11.7191
0.0155952
11.7153
0.0159137
11.7116
0.0162387
11.7077
0.0165701
11.7037
0.0169082
11.6997
0.0172532
11.6956
0.0176058
11.6914
0.0179662
11.6871
0.0183345
11.6827
0.0187105
11.6782
0.0190943
11.6736
0.019486
11.6689
0.0198858
11.6641
0.0202943
11.6593
0.0207116
11.6543
0.0211379
11.6492
0.0215733
11.644
0.0220179
11.6387
0.022472
11.6333
0.0229357
11.6277
0.0234095
11.622
0.0238934
11.6163
0.0243877
11.6104
0.0248927
11.6043
0.0254086
11.5982
0.0259356
11.5919
0.026474
11.5854
0.0270241
11.5789
0.0275861
11.5721
0.0281604
11.5653
0.0287472
11.5583
0.0293468
11.5511
0.0299595
11.5438
0.0305856
11.5363
0.0312255
11.5287
0.0318795
11.5209
0.0325479
11.5129
0.0332311
11.5048
0.0339293
11.4965
0.0346431
11.488
0.0353729
11.4793
0.0361188
11.4704
0.0368814
11.4613
0.0376611
11.4521
0.0384584
11.4426
0.0392736
11.4329
0.0401072
11.4231
0.0409596
11.4129
0.0418314
11.4026
0.042723
11.3921
0.0436348
11.3813
0.0445676
11.3703
0.0455218
11.359
0.0464979
11.3475
0.0474966
11.3357
0.0485181
11.3237
0.0495631
11.3114
0.0506323
11.2989
0.0517267
11.2861
0.052847
11.2729
0.0539938
11.2595
0.0551671
11.2458
0.0563672
11.2318
0.0575951
11.2175
0.0588522
11.2029
0.06014
11.188
0.0614596
11.1727
0.0628109
11.157
0.0641936
11.1411
0.0656075
11.1248
0.0670541
11.1081
0.0685359
11.091
0.0700552
11.0736
0.0716132
11.0558
0.0732095
11.0375
0.0748434
11.0189
0.0765147
10.9999
0.0782249
10.9804
0.0799768
10.9605
0.081773
10.9402
0.0836152
10.9194
0.0855035
10.8981
0.0874376
10.8764
0.0894177
10.8542
0.0914454
10.8315
0.0935227
10.8082
0.0956518
10.7845
0.0978344
10.7602
0.100072
10.7354
0.102364
10.71
0.104713
10.6841
0.10712
10.6575
0.109587
10.6304
0.112115
10.6027
0.114706
10.5743
0.117361
10.5453
0.120083
10.5157
0.122872
10.4854
0.125731
10.4544
0.128662
10.4227
0.131665
10.3903
0.134744
10.3571
0.137899
10.3232
0.141133
10.2886
0.144448
10.2531
0.147845
10.2169
0.151328
10.1798
0.154897
10.1419
0.158556
10.1032
0.162306
10.0636
0.16615
10.023
0.17009
9.98159
0.174128
9.9392
0.178267
9.89585
0.182509
9.85152
0.186858
9.80618
0.191314
9.75981
0.195882
9.71239
0.200564
9.66389
0.205362
9.61428
0.210281
9.56355
0.215321
9.51166
0.220488
9.45858
0.225783
9.4043
0.23121
9.34878
0.236772
9.29199
0.242472
9.2339
0.248315
9.17448
0.254303
9.11371
0.26044
9.05155
0.26673
8.98796
0.273177
8.92292
0.279784
8.85638
0.286556
8.78832
0.293498
8.7187
0.300613
0.307905
11.2346
0.0103515
-11.2364
11.2327
0.0105603
11.2309
0.0107736
11.229
0.0109912
11.227
0.0112135
11.225
0.0114404
11.223
0.011672
11.2209
0.0119084
11.2188
0.0121498
11.2167
0.0123963
11.2145
0.012648
11.2122
0.0129049
11.2099
0.0131672
11.2076
0.013435
11.2052
0.0137084
11.2027
0.0139876
11.2002
0.0142727
11.1976
0.014564
11.195
0.0148612
11.1924
0.0151646
11.1897
0.0154742
11.1869
0.0157904
11.184
0.0161135
11.1811
0.0164436
11.1782
0.0167808
11.1752
0.0171251
11.1721
0.0174761
11.1689
0.0178344
11.1657
0.0182003
11.1624
0.0185743
11.159
0.0189566
11.1556
0.0193472
11.1521
0.019746
11.1485
0.0201528
11.1449
0.0205679
11.1411
0.0209918
11.1373
0.021425
11.1334
0.0218678
11.1294
0.0223203
11.1253
0.0227824
11.1212
0.0232542
11.1169
0.0237358
11.1126
0.0242277
11.1082
0.0247302
11.1036
0.0252437
11.099
0.0257682
11.0943
0.0263042
11.0894
0.0268516
11.0845
0.0274108
11.0794
0.027982
11.0743
0.0285655
11.069
0.0291618
11.0636
0.029771
11.0581
0.0303935
11.0525
0.0310294
11.0468
0.0316792
11.0409
0.0323433
11.0349
0.0330217
11.0288
0.0337151
11.0225
0.0344236
11.0161
0.0351478
11.0096
0.0358878
11.0029
0.0366441
10.9961
0.0374171
10.9891
0.0382072
10.9819
0.0390148
10.9746
0.0398403
10.9672
0.0406841
10.9596
0.0415468
10.9518
0.0424286
10.9438
0.0433302
10.9357
0.0442519
10.9274
0.0451944
10.9189
0.046158
10.9102
0.0471433
10.9013
0.0481509
10.8922
0.0491813
10.883
0.050235
10.8735
0.0513127
10.8638
0.0524148
10.8539
0.0535421
10.8438
0.0546952
10.8334
0.0558748
10.8228
0.0570816
10.812
0.0583161
10.8009
0.0595789
10.7896
0.0608707
10.7781
0.0621924
10.7663
0.0635451
10.7542
0.0649296
10.7418
0.0663467
10.7292
0.0677965
10.7163
0.0692795
10.7031
0.0707968
10.6896
0.07235
10.6758
0.0739408
10.6617
0.0755703
10.6472
0.0772386
10.6325
0.0789455
10.6174
0.0806912
10.602
0.0824773
10.5862
0.0843064
10.5701
0.0861811
10.5536
0.0881028
10.5367
0.090071
10.5195
0.0920852
10.5019
0.0941456
10.4838
0.096254
10.4654
0.0984134
10.4465
0.100627
10.4273
0.102896
10.4076
0.10522
10.3874
0.107601
10.3668
0.110037
10.3457
0.112532
10.3241
0.115088
10.3021
0.117706
10.2795
0.120389
10.2564
0.123138
10.2329
0.125955
10.2087
0.12884
10.1841
0.131795
10.1588
0.134822
10.133
0.137924
10.1066
0.141103
10.0796
0.144359
10.052
0.147695
10.0238
0.151114
9.99487
0.154616
9.96533
0.158205
9.93511
0.161882
9.9042
0.16565
9.87259
0.16951
9.84026
0.173466
9.80719
0.177519
9.77336
0.181672
9.73876
0.185928
9.70337
0.190288
9.66717
0.194756
9.63014
0.199335
9.59227
0.204026
9.55352
0.208833
9.51389
0.213758
9.47335
0.218806
9.43189
0.223977
9.38947
0.229276
9.34608
0.234706
9.30169
0.24027
9.25628
0.245971
9.20983
0.251812
9.16231
0.257798
9.1137
0.263931
9.06398
0.270215
9.01311
0.276654
8.96106
0.283252
8.90782
0.290013
8.85335
0.29694
8.79763
0.304038
8.74062
0.311311
8.6823
0.318764
8.62263
0.3264
8.56158
0.334225
8.49912
0.342243
8.43522
0.350459
8.36984
0.358879
8.30294
0.367506
0.376348
10.6949
0.0119948
-10.6965
10.6932
0.0122385
10.6915
0.0124874
10.6897
0.0127416
10.6879
0.013001
10.6861
0.013266
10.6842
0.0135366
10.6823
0.0138128
10.6804
0.0140949
10.6784
0.014383
10.6764
0.0146772
10.6743
0.0149776
10.6722
0.0152843
10.67
0.0155975
10.6678
0.0159173
10.6656
0.016244
10.6633
0.0165777
10.6609
0.0169185
10.6585
0.0172665
10.656
0.0176218
10.6535
0.0179844
10.651
0.0183548
10.6483
0.0187333
10.6457
0.0191201
10.6429
0.0195153
10.6401
0.0199187
10.6373
0.0203304
10.6344
0.0207506
10.6314
0.0211798
10.6283
0.0216185
10.6252
0.022067
10.6221
0.0225254
10.6188
0.0229933
10.6155
0.023471
10.6121
0.0239584
10.6086
0.0244564
10.6051
0.0249652
10.6015
0.0254854
10.5978
0.026017
10.594
0.0265601
10.5901
0.0271147
10.5862
0.0276809
10.5822
0.0282594
10.578
0.0288504
10.5738
0.0294544
10.5695
0.0300716
10.5651
0.0307022
10.5606
0.0313465
10.556
0.0320047
10.5514
0.0326773
10.5466
0.0333644
10.5416
0.0340667
10.5366
0.0347843
10.5315
0.0355176
10.5263
0.036267
10.5209
0.0370328
10.5154
0.0378155
10.5099
0.0386153
10.5041
0.0394329
10.4983
0.0402684
10.4923
0.0411224
10.4862
0.0419953
10.48
0.0428876
10.4736
0.0437996
10.4671
0.0447319
10.4604
0.0456851
10.4536
0.0466594
10.4466
0.0476556
10.4395
0.048674
10.4322
0.0497153
10.4247
0.0507799
10.4171
0.0518686
10.4093
0.0529817
10.4014
0.05412
10.3932
0.055284
10.3849
0.0564744
10.3764
0.0576919
10.3677
0.058937
10.3588
0.0602105
10.3497
0.0615131
10.3404
0.0628454
10.3309
0.0642083
10.3212
0.0656026
10.3112
0.0670291
10.301
0.0684884
10.2906
0.0699812
10.28
0.0715084
10.2691
0.0730709
10.258
0.0746701
10.2466
0.076307
10.235
0.0779821
10.2231
0.079696
10.2109
0.0814493
10.1985
0.0832432
10.1857
0.0850795
10.1727
0.08696
10.1594
0.0888861
10.1458
0.0908577
10.1318
0.092875
10.1176
0.0949382
10.103
0.0970494
10.0881
0.0992114
10.0729
0.101427
10.0573
0.103697
10.0413
0.106022
10.025
0.108401
10.0083
0.110834
9.99126
0.113325
9.97379
0.115876
9.95593
0.118489
9.93766
0.121168
9.91897
0.123912
9.89985
0.126721
9.88029
0.129596
9.86028
0.13254
9.83981
0.135555
9.81887
0.138644
9.79745
0.141809
9.77554
0.145051
9.75313
0.148371
9.73019
0.151772
9.70673
0.155255
9.68273
0.158822
9.65818
0.162477
9.63306
0.166221
9.60737
0.170056
9.58108
0.173984
9.55418
0.178009
9.52667
0.182132
9.49852
0.186355
9.46972
0.190681
9.44026
0.195114
9.41011
0.199654
9.37927
0.204306
9.34772
0.209071
9.31544
0.213953
9.28241
0.218954
9.24862
0.224078
9.21405
0.229327
9.17868
0.234705
9.14249
0.240214
9.10547
0.245858
9.06759
0.251641
9.02883
0.257564
8.98917
0.263633
8.9486
0.269851
8.90708
0.276221
8.8646
0.282746
8.82114
0.289432
8.77667
0.296281
8.73117
0.303298
8.68462
0.310487
8.63698
0.317851
8.58824
0.325397
8.53837
0.333127
8.48733
0.341046
8.43511
0.349159
8.38168
0.357472
8.327
0.365987
8.27106
0.374712
8.21381
0.383651
8.15522
0.392809
8.09527
0.402191
8.03393
0.411804
7.97115
0.421654
7.90691
0.431746
0.442086
10.1811
0.0135008
-10.1826
10.1796
0.0137771
10.178
0.0140592
10.1764
0.0143474
10.1747
0.0146416
10.1731
0.0149421
10.1713
0.015249
10.1696
0.0155624
10.1678
0.0158825
10.166
0.0162094
10.1641
0.0165433
10.1622
0.0168843
10.1603
0.0172326
10.1583
0.0175882
10.1562
0.0179515
10.1542
0.0183226
10.152
0.0187017
10.1499
0.0190889
10.1476
0.0194844
10.1454
0.0198882
10.1431
0.0203005
10.1407
0.0207217
10.1383
0.0211521
10.1358
0.021592
10.1333
0.0220415
10.1307
0.0225005
10.1281
0.022969
10.1254
0.0234473
10.1226
0.0239359
10.1198
0.0244354
10.1169
0.0249461
10.114
0.025468
10.111
0.026001
10.1079
0.0265451
10.1047
0.0271007
10.1015
0.0276681
10.0983
0.0282482
10.0949
0.0288412
10.0915
0.0294473
10.088
0.0300665
10.0844
0.0306989
10.0807
0.031345
10.077
0.032005
10.0731
0.0326794
10.0692
0.0333687
10.0652
0.0340732
10.0611
0.0347931
10.0569
0.0355287
10.0527
0.0362803
10.0483
0.0370485
10.0438
0.0378335
10.0393
0.0386358
10.0346
0.0394557
10.0298
0.0402938
10.0249
0.0411503
10.0199
0.0420257
10.0148
0.0429205
10.0096
0.0438352
10.0043
0.0447701
9.99882
0.0457258
9.99324
0.0467027
9.98753
0.0477014
9.9817
0.0487224
9.97573
0.0497661
9.96963
0.0508333
9.96339
0.0519243
9.95701
0.0530398
9.95048
0.0541803
9.94381
0.0553465
9.93699
0.0565391
9.93001
0.0577585
9.92287
0.0590055
9.91557
0.0602808
9.90811
0.061585
9.90047
0.0629188
9.89267
0.064283
9.88468
0.0656783
9.87651
0.0671055
9.86816
0.0685653
9.85961
0.0700585
9.85087
0.0715861
9.84193
0.0731488
9.83278
0.0747476
9.82343
0.0763833
9.81386
0.0780568
9.80407
0.0797689
9.79406
0.0815206
9.78382
0.083313
9.77334
0.0851474
9.76262
0.087025
9.75166
0.0889465
9.74044
0.0909126
9.72897
0.0929241
9.71723
0.0949823
9.70522
0.0970893
9.69293
0.0992469
9.68036
0.101456
9.6675
0.103718
9.65434
0.106032
9.64088
0.1084
9.62711
0.110822
9.61302
0.113303
9.5986
0.115845
9.58385
0.118449
9.56875
0.121115
9.55331
0.123844
9.53751
0.126636
9.52134
0.129493
9.5048
0.132419
9.48787
0.135417
9.47055
0.138488
9.45283
0.141635
9.43469
0.144856
9.41614
0.148153
9.39715
0.151528
9.37772
0.154985
9.35784
0.158526
9.33749
0.162153
9.31668
0.165868
9.29537
0.169673
9.27358
0.17357
9.25127
0.177561
9.22844
0.181648
9.20509
0.185835
9.18118
0.190123
9.15672
0.194515
9.1317
0.199014
9.10608
0.203622
9.07987
0.208342
9.05305
0.213176
9.0256
0.218128
8.99752
0.223201
8.96878
0.228396
8.93936
0.233719
8.90926
0.23917
8.87846
0.244755
8.84694
0.250475
8.81469
0.256334
8.78168
0.262337
8.7479
0.268485
8.71333
0.274783
8.67795
0.281235
8.64175
0.287843
8.6047
0.294613
8.56678
0.301548
8.52798
0.308651
8.48828
0.315928
8.44764
0.323382
8.40605
0.331018
8.36349
0.33884
8.31994
0.346853
8.27537
0.355061
8.22975
0.363469
8.18306
0.372082
8.13528
0.380905
8.08639
0.389944
8.03634
0.399203
7.98513
0.408688
7.93271
0.418404
7.87906
0.428358
7.82416
0.438555
7.76797
0.449002
7.71045
0.459703
7.65159
0.470667
7.59135
0.481899
7.52969
0.493406
0.505196
9.69188
0.014883
-9.69326
9.69047
0.0151896
9.68902
0.0155027
9.68755
0.0158226
9.68604
0.0161492
9.6845
0.0164829
9.68292
0.0168237
9.68131
0.0171718
9.67967
0.0175273
9.67799
0.0178905
9.67627
0.0182615
9.67451
0.0186405
9.67272
0.0190276
9.67088
0.0194229
9.66901
0.0198268
9.66709
0.0202394
9.66513
0.020661
9.66313
0.0210917
9.66108
0.0215316
9.65899
0.0219808
9.65685
0.0224397
9.65467
0.0229084
9.65243
0.0233875
9.65014
0.0238772
9.64781
0.0243776
9.64542
0.0248886
9.64298
0.0254104
9.64048
0.0259432
9.63793
0.0264876
9.63532
0.0270441
9.63266
0.0276132
9.62993
0.0281948
9.62714
0.0287889
9.62429
0.0293955
9.62138
0.0300149
9.6184
0.0306479
9.61535
0.0312948
9.61223
0.0319563
9.60905
0.0326324
9.60579
0.0333233
9.60246
0.0340291
9.59906
0.0347501
9.59558
0.0354869
9.59202
0.0362399
9.58837
0.0370096
9.58465
0.0377962
9.58084
0.0386003
9.57695
0.039422
9.57297
0.0402618
9.5689
0.0411201
9.56473
0.0419973
9.56048
0.0428941
9.55612
0.0438107
9.55167
0.0447476
9.54711
0.0457053
9.54245
0.0466843
9.53769
0.0476851
9.53282
0.0487082
9.52783
0.0497541
9.52273
0.0508235
9.51752
0.0519167
9.51219
0.0530345
9.50673
0.0541772
9.50115
0.0553457
9.49544
0.0565405
9.48961
0.0577622
9.48364
0.0590114
9.47753
0.0602888
9.47128
0.0615952
9.46489
0.0629312
9.45835
0.0642975
9.45166
0.0656948
9.44481
0.067124
9.43781
0.0685857
9.43065
0.0700808
9.42332
0.0716101
9.41583
0.0731745
9.40816
0.0747747
9.40031
0.0764117
9.39229
0.0780864
9.38407
0.0797996
9.37567
0.0815526
9.36707
0.0833461
9.35827
0.0851812
9.34927
0.0870588
9.34006
0.0889799
9.33063
0.0909455
9.32099
0.092957
9.31112
0.0950158
9.30102
0.0971232
9.29069
0.0992799
9.28012
0.101487
9.26929
0.103745
9.25822
0.106056
9.24689
0.108421
9.23529
0.110844
9.22342
0.113324
9.21128
0.115864
9.19885
0.118462
9.18613
0.12112
9.17311
0.123841
9.15979
0.126627
9.14615
0.129481
9.1322
0.132405
9.11791
0.135399
9.10329
0.138463
9.08833
0.141597
9.07302
0.144806
9.05735
0.148092
9.0413
0.151458
9.02489
0.154907
9.00808
0.15844
8.99088
0.162056
8.97328
0.165757
8.95526
0.169547
8.93681
0.173428
8.91793
0.177403
8.89861
0.181475
8.87883
0.185646
8.85859
0.189917
8.83787
0.19429
8.81666
0.198769
8.79496
0.203356
8.77274
0.208054
8.74999
0.212866
8.72671
0.217794
8.70289
0.222841
8.6785
0.228011
8.65353
0.233305
8.62798
0.238728
8.60183
0.244283
8.57506
0.249971
8.54765
0.255798
8.51961
0.261766
8.4909
0.267879
8.46151
0.27414
8.43144
0.280553
8.40065
0.287121
8.36914
0.293849
8.33688
0.30074
8.30387
0.307799
8.27007
0.315028
8.23548
0.322434
8.20008
0.330019
8.16384
0.337788
8.12674
0.345746
8.08877
0.353897
8.04991
0.362247
8.01013
0.370799
7.96941
0.379559
7.92773
0.388532
7.88507
0.397724
7.8414
0.407138
7.7967
0.416782
7.75094
0.42666
7.70411
0.436779
7.65617
0.447144
7.60709
0.457761
7.55686
0.468636
7.50544
0.479777
7.45281
0.491189
7.39893
0.502879
7.34378
0.514854
7.28733
0.527122
7.22954
0.539689
7.17038
0.552563
0.565753
9.22609
0.016151
-9.22736
9.2248
0.0164859
9.22347
0.0168279
9.22212
0.0171773
9.22073
0.0175342
9.21932
0.0178989
9.21787
0.0182713
9.21639
0.0186517
9.21488
0.0190404
9.21333
0.0194375
9.21175
0.0198432
9.21013
0.0202577
9.20848
0.0206811
9.20679
0.0211136
9.20506
0.0215554
9.20329
0.0220069
9.20148
0.0224682
9.19964
0.0229396
9.19775
0.0234212
9.19581
0.023913
9.19384
0.0244154
9.19182
0.0249287
9.18975
0.0254535
9.18764
0.0259898
9.18548
0.0265379
9.18327
0.0270979
9.18101
0.0276696
9.1787
0.0282536
9.17634
0.0288504
9.17392
0.0294605
9.17145
0.0300843
9.16892
0.030722
9.16634
0.0313735
9.16369
0.0320388
9.16099
0.0327184
9.15823
0.0334128
9.1554
0.0341228
9.15251
0.0348486
9.14955
0.0355907
9.14652
0.036349
9.14343
0.0371238
9.14026
0.0379155
9.13702
0.0387246
9.13371
0.0395516
9.13032
0.040397
9.12686
0.0412613
9.12332
0.0421446
9.11969
0.0430476
9.11598
0.0439704
9.11219
0.0449138
9.10831
0.0458782
9.10434
0.046864
9.10028
0.0478719
9.09612
0.0489022
9.09187
0.0499556
9.08752
0.0510324
9.08307
0.0521334
9.07852
0.0532591
9.07387
0.05441
9.0691
0.0555868
9.06423
0.0567901
9.05924
0.0580205
9.05414
0.0592787
9.04892
0.0605652
9.04358
0.0618809
9.03812
0.0632264
9.03253
0.0646024
9.02681
0.0660097
9.02095
0.0674489
9.01496
0.0689209
9.00883
0.0704265
9.00256
0.0719666
8.99614
0.0735419
8.98958
0.0751532
8.98286
0.0768015
8.97598
0.0784878
8.96894
0.0802128
8.96174
0.0819776
8.95437
0.0837831
8.94682
0.0856304
8.9391
0.0875204
8.9312
0.0894543
8.92311
0.0914333
8.91484
0.0934582
8.90636
0.0955303
8.89769
0.0976506
8.88882
0.0998202
8.87973
0.102041
8.87044
0.104313
8.86092
0.10664
8.85118
0.109021
8.84121
0.111458
8.831
0.113952
8.82055
0.116503
8.80986
0.119116
8.79891
0.121792
8.7877
0.124532
8.77623
0.127336
8.76449
0.130206
8.75246
0.133143
8.74016
0.136148
8.72756
0.139226
8.71466
0.14238
8.70145
0.14561
8.68793
0.148918
8.67409
0.152303
8.65992
0.155766
8.64542
0.159312
8.63057
0.162943
8.61536
0.166663
8.59979
0.170474
8.58386
0.174376
8.56754
0.178372
8.55084
0.182462
8.53374
0.186649
8.51623
0.190937
8.4983
0.19533
8.47995
0.199829
8.46116
0.204436
8.44192
0.209155
8.42222
0.213986
8.40206
0.218934
8.38141
0.224001
8.36027
0.229191
8.33863
0.234506
8.31648
0.23995
8.2938
0.245525
8.27057
0.251234
8.2468
0.257082
8.22245
0.26307
8.19753
0.269204
8.17202
0.275486
8.1459
0.28192
8.11915
0.288509
8.09177
0.295258
8.06374
0.302171
8.03504
0.30925
8.00566
0.316501
7.97559
0.323928