/*--------------------------------*- C++ -*----------------------------------*\
  =========                 |
  \\      /  F ield         | OpenFOAM: The Open Source CFD Toolbox
   \\    /   O peration     | Website:  https://openfoam.org
    \\  /    A nd           | Version:  13
     \\/     M anipulation  |
\*---------------------------------------------------------------------------*/
FoamFile
{
    format      ascii;
    class       volVectorField;
    location    "0.3";
    object      U;
}
// * * * * * * * * * * * * * * * * * * * * * * * * * * * * * * * * * * * * * //

dimensions      [0 1 -1 0 0 0 0];

internalField   nonuniform List<vector> 
68864
(
(30.0155 -0.130958 -1.42358e-21)
(30.0155 -0.131502 -4.27691e-23)
(30.0156 -0.132053 1.14464e-20)
(30.0157 -0.13261 -1.27687e-20)
(30.0157 -0.133174 1.23495e-21)
(30.0158 -0.133745 -1.87864e-21)
(30.0158 -0.134322 5.73238e-21)
(30.0159 -0.134907 -1.87664e-21)
(30.016 -0.135499 2.10854e-21)
(30.016 -0.136097 -7.65478e-21)
(30.0161 -0.136702 4.36585e-21)
(30.0161 -0.137314 5.40767e-22)
(30.0162 -0.137935 -8.85499e-21)
(30.0163 -0.138564 3.61564e-21)
(30.0163 -0.139201 5.06577e-21)
(30.0164 -0.139843 -3.31987e-21)
(30.0164 -0.140489 5.13336e-21)
(30.0165 -0.141142 3.64254e-21)
(30.0166 -0.141804 -1.82572e-21)
(30.0166 -0.142478 -5.99468e-21)
(30.0167 -0.143164 8.80153e-21)
(30.0168 -0.143856 4.48431e-21)
(30.0168 -0.14455 -6.17025e-21)
(30.0169 -0.145245 -6.95342e-21)
(30.017 -0.145945 4.1205e-21)
(30.017 -0.146657 -8.12711e-21)
(30.0171 -0.147385 3.7154e-21)
(30.0172 -0.148129 8.11938e-21)
(30.0172 -0.14888 -1.77932e-20)
(30.0173 -0.149631 -1.25433e-20)
(30.0174 -0.150379 3.84106e-21)
(30.0174 -0.15113 1.04272e-20)
(30.0175 -0.151892 -7.53926e-21)
(30.0176 -0.152672 2.00848e-20)
(30.0177 -0.153469 1.19931e-20)
(30.0177 -0.154275 -2.15918e-20)
(30.0178 -0.155083 2.20813e-20)
(30.0179 -0.155891 -1.06498e-20)
(30.018 -0.156702 -1.32096e-20)
(30.018 -0.157521 2.72171e-20)
(30.0181 -0.158352 -2.65631e-20)
(30.0182 -0.159195 2.56017e-20)
(30.0183 -0.160048 -9.27581e-21)
(30.0183 -0.160907 3.62536e-22)
(30.0184 -0.161771 -2.75713e-20)
(30.0185 -0.16264 3.18727e-20)
(30.0186 -0.163516 -9.76377e-21)
(30.0187 -0.164399 -9.49907e-21)
(30.0188 -0.165291 -8.68026e-22)
(30.0188 -0.166191 1.31193e-20)
(30.0189 -0.167097 -1.04706e-20)
(30.019 -0.16801 -3.84306e-21)
(30.0191 -0.168929 2.05588e-20)
(30.0192 -0.169854 -8.89468e-21)
(30.0193 -0.170785 3.94339e-21)
(30.0194 -0.171723 -9.14552e-21)
(30.0195 -0.172667 1.33166e-20)
(30.0195 -0.173617 -1.17681e-20)
(30.0196 -0.174572 8.02031e-21)
(30.0197 -0.175533 -1.94219e-20)
(30.0198 -0.176499 3.03815e-21)
(30.0199 -0.17747 1.46484e-20)
(30.02 -0.178446 -3.7901e-21)
(30.0201 -0.179427 1.10649e-20)
(30.0202 -0.180412 -1.17865e-20)
(30.0203 -0.181401 4.28376e-21)
(30.0204 -0.182394 -5.14711e-21)
(30.0205 -0.183391 3.44489e-21)
(30.0206 -0.184391 2.90717e-22)
(30.0207 -0.185394 4.30664e-21)
(30.0208 -0.186399 4.13666e-21)
(30.0209 -0.187407 -4.27222e-21)
(30.021 -0.188417 -1.65032e-20)
(30.0211 -0.189429 1.85018e-20)
(30.0212 -0.190443 -7.99453e-21)
(30.0214 -0.191457 -6.51201e-21)
(30.0215 -0.192472 2.11592e-20)
(30.0216 -0.193487 -2.41843e-20)
(30.0217 -0.194503 9.4554e-21)
(30.0218 -0.195518 -1.3293e-20)
(30.0219 -0.196533 2.41039e-20)
(30.022 -0.197546 -1.60782e-20)
(30.0221 -0.198557 4.34201e-21)
(30.0222 -0.199565 1.15586e-20)
(30.0223 -0.20057 -1.43277e-20)
(30.0225 -0.201575 -2.16626e-21)
(30.0226 -0.202578 1.15939e-20)
(30.0227 -0.203578 -4.05622e-21)
(30.0228 -0.204571 -7.98698e-21)
(30.0229 -0.205555 1.44316e-20)
(30.023 -0.206531 4.1235e-21)
(30.0231 -0.207504 4.41719e-21)
(30.0232 -0.208478 -1.85044e-20)
(30.0234 -0.209452 7.36905e-21)
(30.0235 -0.210418 -1.95631e-20)
(30.0236 -0.211368 2.26226e-20)
(30.0237 -0.2123 -3.07713e-20)
(30.0238 -0.213218 2.40051e-20)
(30.0239 -0.214134 1.28789e-21)
(30.024 -0.215056 -2.39589e-20)
(30.0241 -0.215979 3.42114e-20)
(30.0242 -0.216892 -1.1435e-20)
(30.0243 -0.217781 -1.61374e-20)
(30.0244 -0.218641 2.03245e-21)
(30.0245 -0.219481 6.464e-21)
(30.0246 -0.220316 -4.17883e-21)
(30.0247 -0.221156 1.23094e-20)
(30.0248 -0.221998 3.62809e-21)
(30.025 -0.22283 -1.56357e-20)
(30.0251 -0.223639 2.27585e-21)
(30.0252 -0.224419 2.18803e-21)
(30.0252 -0.225176 1.01684e-21)
(30.0253 -0.22592 3.24194e-21)
(30.0254 -0.226659 -9.27883e-21)
(30.0255 -0.227393 1.18676e-20)
(30.0256 -0.228115 -5.16675e-21)
(30.0257 -0.228818 5.28315e-22)
(30.0258 -0.229501 7.61422e-21)
(30.0259 -0.230163 -3.20361e-21)
(30.0259 -0.230809 -4.67712e-21)
(30.026 -0.23144 -3.24554e-21)
(30.0261 -0.232058 5.76397e-21)
(30.0262 -0.232661 -4.29938e-21)
(30.0262 -0.233248 8.78729e-21)
(30.0263 -0.233817 -6.16352e-22)
(30.0264 -0.234369 7.64435e-22)
(30.0265 -0.234905 -5.13474e-21)
(30.0265 -0.235424 -1.05831e-21)
(30.0266 -0.235927 -1.84339e-21)
(30.0266 -0.236414 2.88503e-21)
(30.0267 -0.236884 -1.95008e-21)
(30.0268 -0.237338 3.8894e-21)
(30.0268 -0.237776 -2.33986e-21)
(30.0269 -0.238198 -4.96138e-24)
(30.0269 -0.238604 1.59742e-21)
(30.027 -0.238995 -2.61792e-21)
(30.027 -0.23937 8.39496e-22)
(30.0271 -0.239729 1.83384e-22)
(30.0271 -0.240073 2.02116e-22)
(30.0271 -0.240403 1.17556e-21)
(30.0272 -0.240718 -2.53094e-21)
(30.0272 -0.241018 2.59388e-21)
(30.0273 -0.241304 -1.86624e-21)
(30.0273 -0.241576 -7.54334e-22)
(30.0273 -0.241835 5.12019e-22)
(30.0274 -0.24208 1.53444e-21)
(30.0274 -0.242312 -3.14332e-22)
(30.0274 -0.242531 -1.10133e-21)
(30.0274 -0.242738 5.28824e-22)
(30.0275 -0.242932 6.23693e-22)
(30.0275 -0.243114 -7.97685e-22)
(30.0275 -0.243284 4.67192e-22)
(30.0275 -0.243443 -1.21997e-22)
(30.0275 -0.24359 -2.21018e-22)
(30.0276 -0.243726 2.90207e-24)
(30.0276 -0.243852 1.0015e-22)
(30.0276 -0.243966 1.12306e-22)
(30.0276 -0.24407 -1.04925e-22)
(30.0276 -0.244164 2.25383e-23)
(30.0276 -0.244247 2.24673e-24)
(30.0276 -0.24432 1.1771e-23)
(30.0277 -0.244384 4.01634e-23)
(30.0277 -0.244436 -3.65273e-23)
(30.0277 -0.244479 1.65132e-23)
(30.0277 -0.244512 -1.69741e-23)
(30.0277 -0.244534 1.77167e-24)
(30.0277 -0.24455 4.7574e-25)
(30.0164 -0.131519 -3.12713e-21)
(30.0164 -0.132016 2.74574e-21)
(30.0165 -0.132519 -3.35465e-20)
(30.0166 -0.133029 5.2188e-21)
(30.0166 -0.133545 6.07577e-21)
(30.0167 -0.134068 2.46992e-20)
(30.0168 -0.134599 -3.03731e-20)
(30.0168 -0.135137 2.9859e-20)
(30.0169 -0.135682 -4.10198e-20)
(30.017 -0.136235 4.60958e-21)
(30.0171 -0.136795 1.76558e-20)
(30.0171 -0.137362 -1.71382e-20)
(30.0172 -0.137938 -1.42057e-21)
(30.0173 -0.138522 1.6333e-20)
(30.0174 -0.139114 6.81565e-22)
(30.0174 -0.139712 -6.18968e-21)
(30.0175 -0.140315 1.80428e-20)
(30.0176 -0.140924 -1.30259e-20)
(30.0177 -0.141543 3.97459e-21)
(30.0178 -0.142175 3.59602e-21)
(30.0178 -0.142819 -4.13926e-21)
(30.0179 -0.14347 -3.25805e-21)
(30.018 -0.144123 2.84872e-20)
(30.0181 -0.144776 -3.84162e-20)
(30.0182 -0.145434 -5.95794e-21)
(30.0183 -0.146106 3.05194e-20)
(30.0184 -0.146797 -1.69154e-20)
(30.0185 -0.147504 1.10476e-20)
(30.0186 -0.148218 -1.982e-20)
(30.0187 -0.148931 1.16867e-20)
(30.0188 -0.14964 -1.45015e-20)
(30.0188 -0.150353 2.96579e-20)
(30.0189 -0.151078 -2.39219e-20)
(30.019 -0.151824 -1.81306e-20)
(30.0191 -0.152587 6.93733e-20)
(30.0193 -0.153361 2.9784e-21)
(30.0194 -0.154136 -3.25754e-20)
(30.0195 -0.154911 1.89012e-21)
(30.0196 -0.155688 1.26018e-20)
(30.0197 -0.156474 -7.16759e-21)
(30.0198 -0.157273 -2.05264e-20)
(30.0199 -0.158087 1.30942e-20)
(30.02 -0.158911 1.54172e-20)
(30.0201 -0.159742 -2.163e-20)
(30.0203 -0.160578 -1.58126e-20)
(30.0204 -0.161419 3.38204e-20)
(30.0205 -0.162267 -5.81e-20)
(30.0206 -0.163124 6.98168e-20)
(30.0207 -0.163991 -3.89017e-20)
(30.0209 -0.164866 -2.06427e-20)
(30.021 -0.165748 6.77004e-21)
(30.0211 -0.166638 4.78002e-20)
(30.0213 -0.167534 -4.22956e-22)
(30.0214 -0.168438 3.8292e-21)
(30.0215 -0.169349 -4.31118e-20)
(30.0217 -0.170267 -1.62475e-20)
(30.0218 -0.171192 2.80486e-20)
(30.022 -0.172123 -1.35628e-20)
(30.0221 -0.173061 5.0317e-21)
(30.0223 -0.174006 -2.10353e-21)
(30.0224 -0.174956 1.24402e-21)
(30.0226 -0.175913 1.27356e-20)
(30.0227 -0.176875 3.57591e-20)
(30.0229 -0.177843 -5.02853e-20)
(30.023 -0.178816 2.45925e-20)
(30.0232 -0.179794 -3.80822e-20)
(30.0233 -0.180777 -1.25357e-20)
(30.0235 -0.181765 4.05093e-20)
(30.0237 -0.182757 1.51676e-20)
(30.0238 -0.183753 -1.01958e-20)
(30.024 -0.184753 -2.36891e-20)
(30.0242 -0.185756 3.56094e-20)
(30.0243 -0.186762 -1.62395e-20)
(30.0245 -0.187771 1.30452e-20)
(30.0247 -0.188783 -2.33906e-20)
(30.0249 -0.189796 2.06631e-20)
(30.0251 -0.190812 1.2348e-20)
(30.0252 -0.191828 9.61348e-22)
(30.0254 -0.192846 -3.9822e-20)
(30.0256 -0.193864 2.82981e-20)
(30.0258 -0.194884 -4.45966e-20)
(30.026 -0.195903 3.00315e-20)
(30.0262 -0.19692 -1.33587e-20)
(30.0264 -0.197936 1.66094e-20)
(30.0266 -0.198949 -1.37476e-20)
(30.0267 -0.199963 2.6697e-20)
(30.0269 -0.200977 -2.00497e-20)
(30.0271 -0.201989 5.6415e-21)
(30.0273 -0.202995 -1.67201e-21)
(30.0275 -0.203993 -1.64059e-20)
(30.0277 -0.204984 3.22289e-20)
(30.0279 -0.205972 -1.4317e-20)
(30.0281 -0.206963 -9.19461e-21)
(30.0283 -0.207954 -6.86973e-21)
(30.0285 -0.20894 -2.87029e-21)
(30.0287 -0.20991 7.53575e-21)
(30.0289 -0.210861 1.60866e-20)
(30.0291 -0.2118 8.0936e-21)
(30.0293 -0.212737 -2.71328e-20)
(30.0295 -0.213681 -7.92714e-21)
(30.0297 -0.214629 8.16872e-21)
(30.0299 -0.215568 1.56094e-20)
(30.0301 -0.216482 3.74135e-21)
(30.0303 -0.217368 -3.93102e-21)
(30.0304 -0.218233 -9.9601e-21)
(30.0306 -0.219094 -4.24013e-21)
(30.0308 -0.219962 6.44081e-21)
(30.031 -0.220832 1.60134e-20)
(30.0312 -0.221694 -1.53848e-20)
(30.0314 -0.222532 4.37593e-21)
(30.0316 -0.223342 -1.10661e-20)
(30.0317 -0.224128 1.72566e-20)
(30.0319 -0.224902 -8.00497e-21)
(30.0321 -0.22567 -2.95283e-21)
(30.0322 -0.226434 1.34763e-20)
(30.0324 -0.227188 -1.57094e-20)
(30.0326 -0.227923 -4.83624e-22)
(30.0327 -0.228636 4.92431e-21)
(30.0329 -0.229329 8.11745e-21)
(30.033 -0.230006 -7.10821e-21)
(30.0332 -0.230668 -6.20667e-21)
(30.0333 -0.231317 9.90758e-21)
(30.0335 -0.231951 -5.38018e-21)
(30.0336 -0.232568 1.16623e-21)
(30.0337 -0.233167 7.7268e-22)
(30.0339 -0.233749 -6.93578e-21)
(30.034 -0.234314 7.89095e-22)
(30.0341 -0.234863 -1.55387e-22)
(30.0342 -0.235394 9.84498e-21)
(30.0344 -0.235909 -3.94463e-21)
(30.0345 -0.236408 1.76077e-21)
(30.0346 -0.236889 -2.40406e-21)
(30.0347 -0.237354 1.95626e-21)
(30.0348 -0.237802 -2.84947e-21)
(30.0349 -0.238234 5.99556e-21)
(30.035 -0.238649 -6.71376e-21)
(30.0351 -0.239048 4.34269e-21)
(30.0351 -0.239431 -3.80664e-21)
(30.0352 -0.239799 6.40215e-23)
(30.0353 -0.24015 4.53663e-21)
(30.0354 -0.240486 -8.73243e-22)
(30.0354 -0.240807 -1.66321e-21)
(30.0355 -0.241114 1.70272e-21)
(30.0356 -0.241405 5.83511e-22)
(30.0356 -0.241682 -3.08092e-21)
(30.0357 -0.241945 -2.82274e-22)
(30.0357 -0.242193 3.5047e-21)
(30.0358 -0.242429 -3.17871e-21)
(30.0358 -0.24265 1.98852e-21)
(30.0359 -0.242859 8.04271e-22)
(30.0359 -0.243055 -2.50747e-21)
(30.0359 -0.243238 6.71791e-22)
(30.036 -0.243409 -5.98624e-22)
(30.036 -0.243568 4.89424e-22)
(30.036 -0.243715 2.99517e-22)
(30.036 -0.24385 -3.79186e-22)
(30.0361 -0.243974 8.08733e-22)
(30.0361 -0.244087 -7.37769e-22)
(30.0361 -0.244189 3.03148e-22)
(30.0361 -0.24428 -6.97345e-23)
(30.0361 -0.244359 1.87321e-22)
(30.0361 -0.244428 -3.77533e-23)
(30.0362 -0.244486 -7.03298e-23)
(30.0362 -0.244533 5.50492e-23)
(30.0362 -0.244569 -5.20992e-23)
(30.0362 -0.244592 7.44632e-24)
(30.0362 -0.244607 -4.62587e-24)
(30.0065 -0.131605 -2.34855e-20)
(30.0066 -0.132107 -9.15617e-21)
(30.0067 -0.132616 -1.00803e-20)
(30.0068 -0.13313 2.32564e-20)
(30.0068 -0.133652 -2.9012e-20)
(30.0069 -0.134181 5.34671e-20)
(30.007 -0.134717 -7.47474e-21)
(30.0071 -0.135261 2.04479e-21)
(30.0072 -0.135813 3.25805e-22)
(30.0073 -0.136372 5.32745e-21)
(30.0074 -0.136937 -3.87085e-20)
(30.0075 -0.137509 1.41968e-20)
(30.0076 -0.138089 1.74576e-20)
(30.0077 -0.138679 1.71736e-20)
(30.0079 -0.139276 -2.19979e-20)
(30.008 -0.139879 1.27263e-20)
(30.0081 -0.140488 -2.11114e-21)
(30.0082 -0.141102 1.4334e-21)
(30.0083 -0.141727 -1.88264e-20)
(30.0084 -0.142364 -3.16874e-21)
(30.0085 -0.143013 -1.07053e-20)
(30.0087 -0.143669 -1.1464e-20)
(30.0088 -0.144327 1.85519e-20)
(30.0089 -0.144985 5.26744e-21)
(30.009 -0.145649 -2.68763e-20)
(30.0092 -0.146326 4.66815e-20)
(30.0093 -0.147022 -3.76466e-20)
(30.0094 -0.147734 6.78043e-21)
(30.0096 -0.148453 3.30194e-20)
(30.0097 -0.149171 1.68949e-21)
(30.0099 -0.149886 -4.44025e-20)
(30.01 -0.150603 3.26126e-20)
(30.0102 -0.151334 -3.72978e-20)
(30.0103 -0.152085 -7.59607e-21)
(30.0105 -0.152853 3.27761e-20)
(30.0106 -0.153632 -6.98932e-21)
(30.0108 -0.154412 -1.10106e-20)
(30.0109 -0.155191 2.07232e-20)
(30.0111 -0.155973 5.82782e-21)
(30.0112 -0.156764 1.68529e-20)
(30.0114 -0.157569 -8.48836e-20)
(30.0116 -0.158388 1.72338e-20)
(30.0118 -0.159217 8.9706e-20)
(30.0119 -0.160052 -1.02004e-19)
(30.0121 -0.160893 8.70964e-22)
(30.0123 -0.161738 5.65244e-20)
(30.0125 -0.162591 4.66287e-20)
(30.0127 -0.163453 -2.84028e-20)
(30.0129 -0.164325 1.36025e-20)
(30.013 -0.165205 -2.34355e-20)
(30.0132 -0.166092 5.39703e-21)
(30.0134 -0.166986 -2.48795e-20)
(30.0136 -0.167887 5.01974e-20)
(30.0138 -0.168795 8.06818e-21)
(30.0141 -0.169711 -4.59223e-20)
(30.0143 -0.170633 -4.26099e-20)
(30.0145 -0.171563 9.89039e-21)
(30.0147 -0.172499 7.41155e-20)
(30.0149 -0.173441 -3.37921e-20)
(30.0151 -0.17439 -3.40698e-20)
(30.0154 -0.175344 -1.92872e-20)
(30.0156 -0.176305 3.72191e-20)
(30.0158 -0.177271 6.04292e-20)
(30.0161 -0.178243 -8.49642e-20)
(30.0163 -0.17922 3.63963e-20)
(30.0166 -0.180202 1.41666e-20)
(30.0168 -0.181189 2.63798e-20)
(30.0171 -0.18218 -3.85782e-20)
(30.0173 -0.183175 1.11491e-20)
(30.0176 -0.184174 -1.34771e-20)
(30.0178 -0.185177 4.72422e-20)
(30.0181 -0.186183 -1.63678e-21)
(30.0184 -0.187193 -4.52098e-20)
(30.0186 -0.188204 9.64675e-21)
(30.0189 -0.189219 -1.59961e-21)
(30.0192 -0.190235 1.01459e-20)
(30.0194 -0.191252 -2.49576e-20)
(30.0197 -0.192271 -1.58172e-20)
(30.02 -0.19329 -2.66151e-21)
(30.0203 -0.194311 1.58203e-20)
(30.0206 -0.195332 -2.1571e-20)
(30.0209 -0.196352 5.99064e-20)
(30.0212 -0.19737 -2.84104e-21)
(30.0215 -0.198387 -3.98643e-20)
(30.0218 -0.199401 4.9081e-21)
(30.022 -0.200416 2.5102e-20)
(30.0223 -0.20143 -1.28505e-20)
(30.0227 -0.202442 -4.65314e-20)
(30.023 -0.203447 5.76135e-20)
(30.0233 -0.204445 -1.88789e-20)
(30.0236 -0.205435 -1.63084e-20)
(30.0239 -0.206423 -1.41228e-20)
(30.0242 -0.207412 8.58493e-21)
(30.0245 -0.208403 5.52044e-20)
(30.0248 -0.209386 -2.38741e-20)
(30.0251 -0.210354 -1.05912e-20)
(30.0254 -0.211303 3.53437e-20)
(30.0257 -0.212239 -3.65583e-20)
(30.026 -0.213174 3.02496e-20)
(30.0263 -0.214117 -2.99172e-20)
(30.0266 -0.215062 -5.73133e-21)
(30.0269 -0.215997 -5.56668e-22)
(30.0272 -0.216907 4.05225e-21)
(30.0275 -0.217788 1.22748e-20)
(30.0278 -0.218649 5.33727e-21)
(30.0281 -0.219507 -3.7906e-20)
(30.0284 -0.220371 1.87376e-20)
(30.0287 -0.221238 2.85831e-20)
(30.029 -0.222095 -5.55131e-21)
(30.0292 -0.222927 -3.65851e-20)
(30.0295 -0.223731 3.93892e-20)
(30.0298 -0.224512 -1.99441e-20)
(30.0301 -0.22528 1.9361e-20)
(30.0303 -0.226044 -2.47794e-21)
(30.0306 -0.226802 -2.8343e-20)
(30.0309 -0.22755 4.39044e-21)
(30.0311 -0.228279 4.32088e-21)
(30.0314 -0.228986 5.82356e-21)
(30.0316 -0.229672 -1.53023e-21)
(30.0319 -0.230342 -7.91927e-21)
(30.0321 -0.230998 -3.5905e-21)
(30.0323 -0.231641 -7.65492e-21)
(30.0325 -0.232268 2.16659e-20)
(30.0328 -0.232878 4.0802e-21)
(30.033 -0.233471 -1.57043e-20)
(30.0332 -0.234046 1.14244e-21)
(30.0334 -0.234604 3.32365e-22)
(30.0336 -0.235146 -7.1191e-21)
(30.0338 -0.235671 4.98506e-21)
(30.034 -0.236179 6.07568e-21)
(30.0341 -0.23667 6.93723e-21)
(30.0343 -0.237145 -6.28011e-21)
(30.0345 -0.237602 1.9013e-21)
(30.0346 -0.238044 -6.50351e-21)
(30.0348 -0.238468 4.92429e-21)
(30.0349 -0.238877 -1.03188e-21)
(30.0351 -0.239269 1.23222e-21)
(30.0352 -0.239645 -6.82626e-22)
(30.0354 -0.240006 1.56038e-21)
(30.0355 -0.240351 -2.40072e-21)
(30.0356 -0.24068 -3.8178e-23)
(30.0357 -0.240995 1.44223e-21)
(30.0358 -0.241294 1.55004e-21)
(30.0359 -0.241579 7.90155e-22)
(30.036 -0.24185 -6.12044e-21)
(30.0361 -0.242106 1.44261e-21)
(30.0362 -0.242349 4.25653e-21)
(30.0363 -0.242578 -3.0945e-21)
(30.0364 -0.242794 -4.60837e-22)
(30.0365 -0.242997 1.34152e-21)
(30.0366 -0.243187 -3.27785e-21)
(30.0366 -0.243365 2.61312e-21)
(30.0367 -0.24353 -6.62222e-22)
(30.0368 -0.243684 1.0153e-21)
(30.0368 -0.243826 -5.87894e-22)
(30.0369 -0.243956 2.64847e-23)
(30.0369 -0.244075 4.03565e-22)
(30.037 -0.244183 -4.44298e-22)
(30.037 -0.24428 4.33174e-22)
(30.0371 -0.244366 -6.506e-22)
(30.0371 -0.244441 8.23719e-23)
(30.0371 -0.244505 2.10204e-22)
(30.0372 -0.244559 -4.08247e-23)
(30.0372 -0.244601 7.94055e-24)
(30.0373 -0.244632 4.85854e-23)
(30.0373 -0.244651 -1.87641e-23)
(30.0373 -0.244659 6.52836e-24)
(30.0021 -0.133126 7.51284e-21)
(30.0022 -0.133597 -1.15254e-20)
(30.0023 -0.134074 2.78094e-20)
(30.0024 -0.134558 -2.93792e-20)
(30.0025 -0.135049 6.19968e-20)
(30.0026 -0.135547 -8.80161e-20)
(30.0027 -0.136053 4.80715e-20)
(30.0028 -0.136567 3.58287e-20)
(30.003 -0.137087 1.6618e-20)
(30.0031 -0.137614 -4.48166e-20)
(30.0032 -0.138147 3.75071e-20)
(30.0033 -0.138688 -3.46455e-20)
(30.0034 -0.139238 2.06866e-20)
(30.0036 -0.139797 -1.85404e-20)
(30.0037 -0.140364 3.78665e-21)
(30.0038 -0.140937 -2.71884e-20)
(30.004 -0.141514 -1.35595e-20)
(30.0041 -0.142098 6.14565e-20)
(30.0042 -0.142692 -1.78789e-20)
(30.0044 -0.143299 -5.35978e-20)
(30.0045 -0.143918 -1.81835e-20)
(30.0047 -0.144545 2.24861e-20)
(30.0048 -0.145174 -2.50028e-20)
(30.0049 -0.145802 4.90331e-20)
(30.0051 -0.146436 -5.37259e-21)
(30.0052 -0.147084 1.23984e-20)
(30.0054 -0.147751 -3.2538e-20)
(30.0056 -0.148435 2.48633e-20)
(30.0057 -0.149126 2.3906e-20)
(30.0059 -0.149816 2.09255e-20)
(30.0061 -0.150502 -3.51808e-20)
(30.0062 -0.151192 -3.22654e-21)
(30.0064 -0.151895 -5.05828e-20)
(30.0066 -0.152618 8.40907e-20)
(30.0068 -0.15336 -6.93829e-20)
(30.0069 -0.154112 5.06237e-21)
(30.0071 -0.154867 2.08357e-20)
(30.0073 -0.15562 -2.83606e-20)
(30.0075 -0.156376 7.34306e-20)
(30.0077 -0.157141 -8.00017e-20)
(30.0079 -0.157921 8.89111e-20)
(30.0081 -0.158715 -7.57578e-20)
(30.0083 -0.15952 3.3441e-20)
(30.0085 -0.160332 2.68373e-20)
(30.0088 -0.161149 -4.25579e-20)
(30.009 -0.161971 1.9079e-20)
(30.0092 -0.162801 -2.6083e-20)
(30.0094 -0.163641 2.06791e-20)
(30.0097 -0.16449 1.74818e-20)
(30.0099 -0.165349 -1.08235e-20)
(30.0101 -0.166215 -6.66968e-21)
(30.0104 -0.167088 7.00058e-20)
(30.0106 -0.167969 -1.03651e-19)
(30.0109 -0.168857 6.68474e-20)
(30.0111 -0.169753 2.14587e-20)
(30.0114 -0.170657 -9.4198e-20)
(30.0116 -0.171568 2.96821e-20)
(30.0119 -0.172485 -2.61786e-20)
(30.0122 -0.17341 9.09862e-20)
(30.0125 -0.174342 -7.42358e-20)
(30.0127 -0.17528 1.86236e-20)
(30.013 -0.176224 -1.72005e-20)
(30.0133 -0.177174 9.01475e-20)
(30.0136 -0.178131 -4.06322e-20)
(30.0139 -0.179093 4.25694e-20)
(30.0142 -0.18006 -1.00459e-19)
(30.0145 -0.181033 -4.3304e-20)
(30.0148 -0.182011 3.07609e-20)
(30.0151 -0.182993 3.4272e-20)
(30.0155 -0.18398 3.24322e-20)
(30.0158 -0.18497 2.39756e-20)
(30.0161 -0.185965 -1.12231e-19)
(30.0164 -0.186963 6.42243e-20)
(30.0168 -0.187964 -3.61084e-20)
(30.0171 -0.188968 3.65782e-20)
(30.0175 -0.189974 3.87359e-20)
(30.0178 -0.190982 -9.59382e-20)
(30.0182 -0.191992 1.18316e-19)
(30.0185 -0.193003 -3.6175e-20)
(30.0189 -0.194016 -3.75843e-20)
(30.0192 -0.195029 4.90122e-20)
(30.0196 -0.196043 -5.7512e-20)
(30.02 -0.197054 -2.44123e-20)
(30.0203 -0.198064 2.37861e-20)
(30.0207 -0.199073 4.99468e-20)
(30.0211 -0.200082 -2.7162e-20)
(30.0214 -0.201092 1.47091e-20)
(30.0218 -0.202099 -2.1307e-20)
(30.0222 -0.203101 1.40798e-21)
(30.0226 -0.204095 -4.54059e-20)
(30.023 -0.205081 5.7909e-20)
(30.0234 -0.206067 -1.87535e-20)
(30.0237 -0.207055 5.57402e-20)
(30.0241 -0.208044 -4.0404e-20)
(30.0245 -0.209026 -2.53271e-20)
(30.0249 -0.209992 9.35162e-22)
(30.0253 -0.21094 -7.64663e-21)
(30.0257 -0.211875 -1.28969e-20)
(30.026 -0.212811 5.95376e-21)
(30.0264 -0.213755 -1.05387e-20)
(30.0268 -0.214702 2.12161e-20)
(30.0272 -0.215638 3.62555e-20)
(30.0276 -0.216549 -1.99573e-20)
(30.028 -0.217431 4.06748e-20)
(30.0283 -0.218294 -2.5611e-20)
(30.0287 -0.219156 1.28038e-20)
(30.0291 -0.220024 -2.48978e-20)
(30.0294 -0.220895 -2.1945e-21)
(30.0298 -0.221756 2.08471e-20)
(30.0302 -0.222592 -4.27112e-20)
(30.0305 -0.223399 3.46218e-20)
(30.0309 -0.224184 1.23891e-20)
(30.0312 -0.224958 -4.30248e-20)
(30.0315 -0.225728 3.32738e-20)
(30.0319 -0.226493 -1.41237e-20)
(30.0322 -0.227247 -1.07609e-20)
(30.0325 -0.227982 -8.28045e-21)
(30.0329 -0.228695 3.36187e-21)
(30.0332 -0.229388 -7.93037e-21)
(30.0335 -0.230065 1.63422e-20)
(30.0338 -0.230729 -5.38381e-21)
(30.034 -0.231379 1.68211e-20)
(30.0343 -0.232014 -2.24726e-20)
(30.0346 -0.232633 1.33753e-20)
(30.0349 -0.233234 1.28274e-20)
(30.0351 -0.233817 -1.94613e-20)
(30.0354 -0.234384 8.70001e-21)
(30.0356 -0.234934 -1.01155e-21)
(30.0358 -0.235467 3.61547e-22)
(30.0361 -0.235984 -1.06753e-20)
(30.0363 -0.236485 2.6968e-20)
(30.0365 -0.236968 -2.27127e-20)
(30.0367 -0.237435 1.10425e-20)
(30.0369 -0.237885 1.51066e-21)
(30.0371 -0.238319 -3.76455e-22)
(30.0372 -0.238737 -8.696e-22)
(30.0374 -0.239138 -8.0988e-21)
(30.0376 -0.239523 7.07678e-21)
(30.0377 -0.239893 2.31652e-21)
(30.0379 -0.240247 -6.99603e-21)
(30.038 -0.240585 -2.36054e-22)
(30.0381 -0.240908 1.93382e-21)
(30.0382 -0.241216 3.5097e-21)
(30.0384 -0.241509 1.0707e-22)
(30.0385 -0.241788 -1.94386e-21)
(30.0386 -0.242053 1.33548e-22)
(30.0386 -0.242303 -2.86689e-22)
(30.0387 -0.24254 -2.62738e-21)
(30.0388 -0.242763 8.34284e-21)
(30.0389 -0.242974 -3.84691e-21)
(30.0389 -0.243171 -1.15006e-21)
(30.039 -0.243355 5.84509e-22)
(30.0391 -0.243527 1.75215e-21)
(30.0391 -0.243687 -9.89929e-23)
(30.0391 -0.243835 -1.46401e-21)
(30.0392 -0.243971 -2.99016e-22)
(30.0392 -0.244096 1.33314e-21)
(30.0392 -0.244209 -4.53258e-22)
(30.0393 -0.244311 1.33791e-22)
(30.0393 -0.244401 -1.85698e-22)
(30.0393 -0.244481 -8.5575e-23)
(30.0393 -0.244549 2.01022e-22)
(30.0393 -0.244607 -1.40442e-22)
(30.0393 -0.244653 -5.60407e-23)
(30.0393 -0.244687 1.0416e-22)
(30.0393 -0.24471 -1.80892e-23)
(30.0393 -0.24472 -1.24687e-23)
(29.9945 -0.133667 2.60811e-20)
(29.9946 -0.134142 -3.60272e-20)
(29.9948 -0.134622 -1.40563e-20)
(29.9949 -0.13511 3.6626e-20)
(29.995 -0.135606 -1.3223e-20)
(29.9951 -0.136108 1.32056e-20)
(29.9952 -0.136618 -3.47356e-20)
(29.9954 -0.137134 1.78825e-20)
(29.9955 -0.137658 3.09942e-20)
(29.9956 -0.138189 -5.21622e-20)
(29.9957 -0.138726 8.58563e-20)
(29.9959 -0.139272 -8.5159e-20)
(29.996 -0.139827 5.0251e-20)
(29.9962 -0.14039 -3.78445e-20)
(29.9963 -0.140962 3.99422e-22)
(29.9964 -0.141539 5.85311e-20)
(29.9966 -0.14212 -1.13131e-19)
(29.9967 -0.142708 6.05302e-20)
(29.9969 -0.143307 5.92342e-21)
(29.9971 -0.143919 -1.34259e-21)
(29.9972 -0.144544 -3.05926e-20)
(29.9974 -0.145176 -1.57472e-20)
(29.9976 -0.145809 -3.1596e-20)
(29.9977 -0.146443 9.20314e-20)
(29.9979 -0.147082 -7.04571e-21)
(29.9981 -0.147735 3.49549e-20)
(29.9983 -0.148407 -5.45228e-20)
(29.9985 -0.149097 1.63787e-20)
(29.9986 -0.149794 -3.45708e-20)
(29.9988 -0.15049 4.05494e-20)
(29.999 -0.151182 4.07469e-20)
(29.9992 -0.151876 -5.62535e-20)
(29.9994 -0.152585 -2.74943e-20)
(29.9997 -0.153314 4.36166e-20)
(29.9999 -0.154062 -8.69412e-20)
(30.0001 -0.154821 1.19813e-19)
(30.0003 -0.155581 -4.73821e-20)
(30.0006 -0.15634 4.53274e-20)
(30.0008 -0.157102 9.48216e-21)
(30.001 -0.157873 -5.53505e-20)
(30.0013 -0.158659 8.42567e-21)
(30.0015 -0.159459 1.20784e-20)
(30.0018 -0.160271 -1.31615e-21)
(30.002 -0.161089 -6.9498e-20)
(30.0023 -0.161911 7.43351e-20)
(30.0025 -0.16274 -1.40609e-20)
(30.0028 -0.163576 7.34097e-21)
(30.0031 -0.164422 1.54561e-20)
(30.0034 -0.165277 -3.65184e-20)
(30.0037 -0.166142 4.94196e-20)
(30.004 -0.167014 -3.66006e-20)
(30.0043 -0.167893 -1.1468e-20)
(30.0046 -0.16878 3.40156e-20)
(30.0049 -0.169674 1.33895e-20)
(30.0052 -0.170575 -3.24955e-20)
(30.0055 -0.171484 -1.74757e-20)
(30.0058 -0.172401 -4.97619e-20)
(30.0062 -0.173324 3.40034e-20)
(30.0065 -0.174254 -5.56254e-20)
(30.0068 -0.17519 9.70711e-20)
(30.0072 -0.176133 7.5482e-21)
(30.0075 -0.177083 -1.19012e-19)
(30.0079 -0.178038 1.37882e-19)
(30.0083 -0.178998 -1.07199e-19)
(30.0086 -0.179965 1.50056e-20)
(30.009 -0.180936 6.08787e-20)
(30.0094 -0.181913 -6.12549e-20)
(30.0098 -0.182894 7.39155e-20)
(30.0102 -0.18388 -1.20564e-19)
(30.0106 -0.18487 6.41708e-20)
(30.011 -0.185863 5.39769e-20)
(30.0114 -0.18686 -5.69651e-20)
(30.0118 -0.18786 1.13834e-19)
(30.0122 -0.188863 -3.07568e-20)
(30.0127 -0.189869 2.10194e-20)
(30.0131 -0.190876 -1.20838e-19)
(30.0135 -0.191885 2.30546e-20)
(30.014 -0.192895 -4.47944e-20)
(30.0144 -0.193907 9.28552e-20)
(30.0149 -0.194919 -1.02578e-19)
(30.0153 -0.195932 9.70487e-20)
(30.0158 -0.196944 -4.52817e-20)
(30.0162 -0.197954 8.29062e-20)
(30.0167 -0.198962 -1.22601e-19)
(30.0172 -0.199968 9.20455e-20)
(30.0177 -0.200975 -4.43992e-21)
(30.0181 -0.201981 -1.0574e-19)
(30.0186 -0.202985 1.55858e-19)
(30.0191 -0.203982 -8.32462e-20)
(30.0196 -0.20497 -1.71846e-20)
(30.0201 -0.205952 4.83172e-20)
(30.0206 -0.206932 -2.2974e-20)
(30.021 -0.207914 -1.53932e-20)
(30.0215 -0.208896 5.97209e-20)
(30.022 -0.209871 -6.68832e-20)
(30.0225 -0.210829 2.04568e-21)
(30.023 -0.211767 -3.2953e-20)
(30.0235 -0.212695 6.62443e-20)
(30.024 -0.213623 3.71744e-21)
(30.0245 -0.214558 -1.17487e-20)
(30.025 -0.215495 -5.81087e-21)
(30.0255 -0.21642 -3.08027e-20)
(30.026 -0.217319 7.88634e-21)
(30.0264 -0.218188 3.32319e-20)
(30.0269 -0.219041 -5.98235e-20)
(30.0274 -0.219891 4.72993e-20)
(30.0279 -0.220748 1.61921e-20)
(30.0283 -0.221608 -2.66671e-20)
(30.0288 -0.222455 3.57434e-20)
(30.0293 -0.223276 -1.06668e-21)
(30.0297 -0.224069 -3.06927e-20)
(30.0302 -0.22484 2.06154e-20)
(30.0306 -0.2256 1.38437e-20)
(30.0311 -0.226357 -1.98585e-20)
(30.0315 -0.227108 4.53947e-21)
(30.0319 -0.227847 -9.26434e-21)
(30.0323 -0.228567 -5.61095e-21)
(30.0327 -0.229265 -2.72712e-20)
(30.0331 -0.229943 5.26075e-20)
(30.0335 -0.230605 2.51711e-21)
(30.0339 -0.231254 -2.42549e-20)
(30.0343 -0.231889 4.37996e-21)
(30.0347 -0.23251 -2.10118e-20)
(30.035 -0.233113 2.38398e-20)
(30.0354 -0.233699 1.98069e-20)
(30.0357 -0.234268 -1.98765e-20)
(30.036 -0.234819 1.62424e-20)
(30.0363 -0.235355 -5.73239e-21)
(30.0367 -0.235874 -1.9975e-20)
(30.0369 -0.236377 -5.51013e-21)
(30.0372 -0.236863 -1.03619e-21)
(30.0375 -0.237333 3.43117e-21)
(30.0378 -0.237786 2.00048e-20)
(30.038 -0.238222 -2.25245e-20)
(30.0383 -0.238643 4.63083e-21)
(30.0385 -0.239048 -2.61713e-21)
(30.0387 -0.239436 6.02323e-21)
(30.039 -0.239809 5.75692e-21)
(30.0392 -0.240166 -6.93979e-21)
(30.0393 -0.240508 5.54315e-21)
(30.0395 -0.240835 -6.59177e-21)
(30.0397 -0.241147 5.42561e-21)
(30.0399 -0.241444 -3.02264e-21)
(30.04 -0.241727 -5.29443e-22)
(30.0402 -0.241996 -8.5459e-22)
(30.0403 -0.24225 5.22048e-22)
(30.0404 -0.242491 5.95909e-22)
(30.0405 -0.242719 -1.78857e-21)
(30.0407 -0.242933 3.44371e-21)
(30.0408 -0.243135 1.88724e-23)
(30.0408 -0.243324 9.6351e-22)
(30.0409 -0.2435 -2.40183e-21)
(30.041 -0.243665 1.11059e-21)
(30.0411 -0.243817 5.75685e-22)
(30.0411 -0.243958 -2.43288e-21)
(30.0412 -0.244088 2.25037e-21)
(30.0412 -0.244206 -1.08905e-22)
(30.0413 -0.244314 -9.4943e-22)
(30.0413 -0.24441 -3.99856e-22)
(30.0413 -0.244495 -2.79387e-22)
(30.0414 -0.24457 3.13501e-23)
(30.0414 -0.244634 1.2972e-22)
(30.0414 -0.244687 -1.59874e-22)
(30.0414 -0.244728 -9.94621e-23)
(30.0414 -0.244759 -6.20988e-23)
(30.0414 -0.244778 -2.68381e-23)
(30.0414 -0.244785 -1.18544e-23)
(29.9884 -0.135366 -5.49285e-20)
(29.9885 -0.135829 -3.20052e-20)
(29.9886 -0.136299 7.28789e-20)
(29.9888 -0.136775 -3.76194e-20)
(29.9889 -0.137258 5.15387e-21)
(29.989 -0.137747 8.44674e-21)
(29.9892 -0.138245 7.77364e-21)
(29.9893 -0.138749 3.236e-20)
(29.9895 -0.139261 -8.57948e-20)
(29.9896 -0.13978 2.34315e-20)
(29.9898 -0.140305 2.91846e-20)
(29.9899 -0.140838 5.98736e-21)
(29.9901 -0.14138 -5.80348e-21)
(29.9902 -0.141931 5.1203e-20)
(29.9904 -0.14249 -5.49874e-20)
(29.9905 -0.143054 1.41196e-20)
(29.9907 -0.143623 2.30355e-20)
(29.9909 -0.144198 -4.4884e-20)
(29.9911 -0.144784 -2.78412e-20)
(29.9912 -0.145383 7.24804e-20)
(29.9914 -0.145995 -8.29802e-20)
(29.9916 -0.146615 7.49918e-20)
(29.9918 -0.147235 -1.70196e-20)
(29.992 -0.147856 -6.37956e-21)
(29.9922 -0.148482 -6.86996e-20)
(29.9924 -0.149122 3.85529e-21)
(29.9926 -0.149781 9.98116e-20)
(29.9928 -0.150459 -8.0333e-20)
(29.993 -0.151143 -1.6653e-21)
(29.9933 -0.151826 3.30046e-20)
(29.9935 -0.152505 4.09505e-20)
(29.9937 -0.153187 1.51393e-20)
(29.9939 -0.153882 -3.32006e-20)
(29.9942 -0.154599 -6.47888e-20)
(29.9944 -0.155334 5.58591e-20)
(29.9947 -0.15608 2.23602e-20)
(29.9949 -0.156828 -3.25295e-20)
(29.9952 -0.157575 -6.08097e-20)
(29.9955 -0.158324 3.97367e-20)
(29.9957 -0.159083 7.36822e-20)
(29.996 -0.159856 -3.00659e-20)
(29.9963 -0.160644 4.26871e-20)
(29.9966 -0.161443 -1.35221e-19)
(29.9969 -0.162249 3.99145e-20)
(29.9972 -0.16306 3.47341e-20)
(29.9975 -0.163876 -1.55142e-20)
(29.9978 -0.1647 -5.62611e-21)
(29.9981 -0.165534 3.38352e-20)
(29.9984 -0.166378 -1.38407e-20)
(29.9987 -0.16723 -2.9876e-20)
(29.9991 -0.168091 3.73078e-20)
(29.9994 -0.168959 -1.3965e-20)
(29.9998 -0.169834 5.29199e-20)
(30.0001 -0.170716 -4.82746e-20)
(30.0005 -0.171606 -4.88686e-23)
(30.0009 -0.172504 4.47546e-20)
(30.0012 -0.173409 2.40801e-20)
(30.0016 -0.174321 -4.76092e-20)
(30.002 -0.17524 -5.58435e-20)
(30.0024 -0.176165 3.14342e-20)
(30.0028 -0.177097 4.65136e-20)
(30.0032 -0.178035 -4.46647e-20)
(30.0036 -0.178979 -4.83209e-20)
(30.0041 -0.179929 5.19511e-20)
(30.0045 -0.180884 -3.99395e-20)
(30.0049 -0.181845 -1.55072e-20)
(30.0054 -0.182811 7.63635e-20)
(30.0058 -0.183781 -4.30544e-20)
(30.0063 -0.184755 -1.38237e-20)
(30.0067 -0.185734 -6.80417e-20)
(30.0072 -0.186717 1.14334e-19)
(30.0077 -0.187703 3.80054e-20)
(30.0082 -0.188692 3.40541e-20)
(30.0087 -0.189684 1.75668e-20)
(30.0092 -0.190678 -1.64063e-19)
(30.0097 -0.191674 1.84004e-20)