/*--------------------------------*- C++ -*----------------------------------*\
  =========                 |
  \\      /  F ield         | OpenFOAM: The Open Source CFD Toolbox
   \\    /   O peration     | Website:  https://openfoam.org
    \\  /    A nd           | Version:  13
     \\/     M anipulation  |
\*---------------------------------------------------------------------------*/
FoamFile
{
    format      ascii;
    class       volScalarField;
    location    "0.1";
    object      p;
}
// * * * * * * * * * * * * * * * * * * * * * * * * * * * * * * * * * * * * * //

dimensions      [0 2 -2 0 0 0 0];

internalField   nonuniform List<scalar> 
68864
(
0.340614
0.339253
0.337756
0.33604
0.334274
0.332604
0.330973
0.329321
0.327647
0.325965
0.324278
0.322583
0.320878
0.319163
0.317438
0.315704
0.313959
0.312203
0.310436
0.308658
0.306867
0.305065
0.30325
0.301422
0.29958
0.297725
0.295856
0.293972
0.292073
0.290158
0.288228
0.286282
0.284318
0.282338
0.28034
0.278324
0.276289
0.274236
0.272163
0.27007
0.267957
0.265823
0.263669
0.261493
0.259295
0.257075
0.254832
0.252567
0.250278
0.247965
0.245629
0.243268
0.240883
0.238474
0.236039
0.23358
0.231095
0.228585
0.22605
0.22349
0.220904
0.218292
0.215656
0.212994
0.210308
0.207597
0.204862
0.202102
0.199319
0.196513
0.193684
0.190833
0.18796
0.185067
0.182153
0.179221
0.17627
0.173301
0.170317
0.167317
0.164302
0.161275
0.158236
0.155187
0.152129
0.149063
0.145991
0.142914
0.139835
0.136755
0.133675
0.130597
0.127523
0.124455
0.121394
0.118343
0.115302
0.112275
0.109263
0.106268
0.103291
0.100335
0.0974006
0.0944901
0.0916052
0.0887473
0.0859183
0.0831193
0.080352
0.0776176
0.0749173
0.0722524
0.0696237
0.0670323
0.064479
0.0619645
0.0594895
0.0570543
0.0546596
0.0523054
0.0499921
0.0477198
0.0454886
0.0432983
0.0411491
0.0390408
0.0369733
0.0349465
0.0329604
0.0310148
0.0291098
0.0272458
0.0254234
0.0236433
0.0219063
0.0202133
0.0185655
0.0169642
0.0154113
0.0139085
0.0124581
0.0110624
0.00972415
0.00844621
0.00723163
0.00608361
0.00500545
0.00400048
0.00307201
0.00222319
0.00145701
0.000776116
0.000182737
-0.000321437
-0.000735382
-0.00105888
-0.00129264
-0.00143844
-0.00149928
-0.00147936
-0.00138482
-0.00122144
-0.00100303
-0.000724505
-0.000455688
-5.60763e-05
-0.000239804
0.585035
0.583398
0.581522
0.579355
0.577112
0.575016
0.572974
0.570894
0.56877
0.566626
0.564466
0.562286
0.560081
0.557853
0.555601
0.553324
0.551022
0.548694
0.546339
0.543957
0.541547
0.539109
0.53664
0.534141
0.531611
0.52905
0.526455
0.523827
0.521165
0.518468
0.515735
0.512965
0.510157
0.507311
0.504425
0.501499
0.498532
0.495523
0.492471
0.489376
0.486236
0.48305
0.479818
0.476539
0.473213
0.469837
0.466412
0.462937
0.45941
0.455832
0.452201
0.448518
0.44478
0.440989
0.437142
0.43324
0.429283
0.425269
0.421198
0.417071
0.412887
0.408645
0.404346
0.39999
0.395577
0.391107
0.38658
0.381996
0.377356
0.372661
0.367912
0.363108
0.35825
0.353341
0.34838
0.34337
0.338311
0.333204
0.328052
0.322856
0.317618
0.31234
0.307024
0.301673
0.296287
0.290871
0.285427
0.279956
0.274463
0.26895
0.26342
0.257877
0.252322
0.246761
0.241196
0.23563
0.230068
0.224512
0.218966
0.213434
0.20792
0.202427
0.196958
0.191517
0.186107
0.180732
0.175396
0.1701
0.164849
0.159645
0.154491
0.149389
0.144342
0.139353
0.134422
0.129552
0.124744
0.12
0.115321
0.110707
0.10616
0.10168
0.0972666
0.0929207
0.0886424
0.0844314
0.0802878
0.0762115
0.0722026
0.0682611
0.0643873
0.0605815
0.0568441
0.053176
0.0495787
0.0460541
0.0426046
0.0392331
0.0359434
0.0327395
0.0296264
0.0266097
0.0236954
0.0208905
0.0182023
0.0156388
0.0132082
0.010919
0.00878007
0.00679996
0.00498708
0.00334934
0.00189391
0.000626898
-0.000446877
-0.00132427
-0.00200413
-0.00248761
-0.00277864
-0.00288383
-0.0028142
-0.00258065
-0.00221
-0.00169151
-0.00115421
-0.000295649
-0.000462835
0.875949
0.873755
0.871247
0.86842
0.865507
0.862742
0.860015
0.857227
0.854374
0.85148
0.848553
0.845585
0.842573
0.839515
0.836414
0.833267
0.830073
0.826832
0.823543
0.820204
0.816816
0.813376
0.809884
0.806338
0.802738
0.799083
0.795372
0.791603
0.787775
0.783888
0.779939
0.775929
0.771856
0.767718
0.763515
0.759245
0.754908
0.750501
0.746025
0.741477
0.736857
0.732163
0.727394
0.722549
0.717628
0.712628
0.707549
0.702389
0.697149
0.691826
0.68642
0.68093
0.675355
0.669694
0.663947
0.658112
0.65219
0.646179
0.64008
0.633891
0.627613
0.621245
0.614788
0.608241
0.601604
0.594878
0.588063
0.58116
0.574169
0.567092
0.559928
0.55268
0.545348
0.537934
0.530439
0.522866
0.515217
0.507493
0.499697
0.491831
0.483899
0.475903
0.467847
0.459733
0.451565
0.443347
0.435084
0.426778
0.418435
0.410058
0.401653
0.393224
0.384776
0.376314
0.367844
0.35937
0.350899
0.342434
0.333983
0.325551
0.317143
0.308764
0.300421
0.292119
0.283863
0.275658
0.26751
0.259424
0.251405
0.243456
0.235584
0.227791
0.220081
0.212459
0.204927
0.197488
0.190145
0.1829
0.175755
0.168711
0.161769
0.154931
0.148196
0.141565
0.135038
0.128615
0.122295
0.116079
0.109965
0.103954
0.0980452
0.0922392
0.0865368
0.0809389
0.0754475
0.0700649
0.0647947
0.0596408
0.0546086
0.0497042
0.044935
0.0403094
0.0358368
0.0315278
0.027394
0.0234479
0.0197025
0.0161717
0.0128695
0.00980991
0.00700674
0.00447311
0.00222103
0.000261015
-0.00139848
-0.00275154
-0.00379538
-0.00453085
-0.00496317
-0.00510205
-0.0049637
-0.00456633
-0.00394783
-0.00310988
-0.0022099
-0.00097021
-0.000785964
1.12078
1.11806
1.11503
1.11169
1.10825
1.10497
1.10173
1.09841
1.09502
1.09158
1.0881
1.08457
1.08098
1.07733
1.07363
1.06988
1.06606
1.06218
1.05825
1.05425
1.05019
1.04606
1.04186
1.0376
1.03327
1.02887
1.02439
1.01984
1.01522
1.01052
1.00573
1.00087
0.99593
0.990903
0.985791
0.980592
0.975304
0.969926
0.964456
0.958892
0.953233
0.947477
0.941623
0.935668
0.929611
0.923451
0.917186
0.910814
0.904334
0.897745
0.891045
0.884232
0.877306
0.870265
0.863109
0.855835
0.848444
0.840933
0.833303
0.825553
0.817682
0.809689
0.801575
0.793339
0.784982
0.776502
0.767902
0.75918
0.750338
0.741377
0.732298
0.723102
0.71379
0.704365
0.694827
0.68518
0.675426
0.665567
0.655607
0.645548
0.635394
0.625148
0.614816
0.6044
0.593906
0.583337
0.5727
0.562
0.551241
0.540431
0.529574
0.518677
0.507747
0.49679
0.485813
0.474823
0.463827
0.452833
0.441848
0.430878
0.419933
0.409018
0.398143
0.387313
0.376537
0.365821
0.355174
0.3446
0.334108
0.323704
0.313393
0.303181
0.293074
0.283077
0.273194
0.263429
0.253785
0.244266
0.234874
0.225611
0.216479
0.207479
0.19861
0.189874
0.181271
0.172798
0.164457
0.156245
0.148163
0.140209
0.132383
0.124684
0.117114
0.109672
0.102361
0.0951835
0.0881437
0.0812469
0.0744996
0.0679102
0.0614886
0.0552462
0.0491962
0.0433534
0.0377342
0.0323564
0.0272388
0.0224014
0.0178648
0.0136497
0.00977669
0.0062655
0.00313458
0.000400342
-0.0019235
-0.00382672
-0.0053034
-0.0063527
-0.00697986
-0.00719651
-0.00702335
-0.00648463
-0.00563049
-0.00446521
-0.0031943
-0.00144413
-0.00107137
1.37232
1.36943
1.3662
1.36265
1.35898
1.35547
1.35199
1.34842
1.34475
1.34101
1.33721
1.33334
1.3294
1.32539
1.3213
1.31713
1.31288
1.30856
1.30415
1.29966
1.29508
1.29041
1.28565
1.28081
1.27587
1.27083
1.2657
1.26046
1.25513
1.24969
1.24415
1.2385
1.23275
1.22688
1.22089
1.21479
1.20858
1.20224
1.19579
1.1892
1.1825
1.17566
1.1687
1.1616
1.15437
1.147
1.13949
1.13185
1.12406
1.11613
1.10805
1.09982
1.09145
1.08293
1.07425
1.06543
1.05645
1.04731
1.03802
1.02857
1.01896
1.00919
0.999269
0.989186
0.978945
0.968545
0.957987
0.947271
0.936399
0.925372
0.91419
0.902856
0.891371
0.879738
0.867958
0.856036
0.843973
0.831774
0.819441
0.806979
0.794393
0.781686
0.768865
0.755934
0.742898
0.729765
0.716541
0.703232
0.689845
0.676387
0.662867
0.649292
0.63567
0.62201
0.608321
0.594611
0.58089
0.567167
0.553452
0.539753
0.526081
0.512445
0.498854
0.48532
0.471849
0.458454
0.445141
0.43192
0.418801
0.40579
0.392897
0.380127
0.36749
0.354989
0.342633
0.330425
0.31837
0.306472
0.294735
0.283161
0.271751
0.260506
0.249428
0.238516
0.227769
0.217186
0.206766
0.196506
0.186406
0.176462
0.166675
0.157042
0.147563
0.138239
0.129071
0.120062
0.111217
0.10254
0.0940417
0.0857306
0.0776194
0.0697227
0.0620575
0.054643
0.0475007
0.0406541
0.0341285
0.0279504
0.0221477
0.0167484
0.0117808
0.00727199
0.00324763
-0.000269109
-0.00325857
-0.00570549
-0.00760022
-0.00893969
-0.00972881
-0.00998102
-0.00972147
-0.00898071
-0.00782139
-0.00625183
-0.00452411
-0.00218262
-0.0014874
1.61226
1.60893
1.60524
1.60125
1.59713
1.59317
1.58923
1.58518
1.58103
1.57681
1.57251
1.56813
1.56367
1.55912
1.55448
1.54975
1.54494
1.54002
1.53502
1.52991
1.52471
1.5194
1.51399
1.50847
1.50284
1.4971
1.49125
1.48528
1.47919
1.47298
1.46665
1.46019
1.4536
1.44688
1.44002
1.43303
1.4259
1.41862
1.4112
1.40364
1.39592
1.38805
1.38003
1.37185
1.36351
1.355
1.34634
1.3375
1.32849
1.31931
1.30996
1.30043
1.29072
1.28083
1.27076
1.2605
1.25006
1.23943
1.22861
1.2176
1.20641
1.19502
1.18344
1.17166
1.1597
1.14754
1.13519
1.12264
1.10991
1.09699
1.08388
1.07059
1.05711
1.04345
1.02961
1.01559
1.00141
0.987056
0.97254
0.957864
0.943036
0.928059
0.912941
0.897687
0.882304
0.8668
0.851183
0.835459
0.819638
0.803728
0.78774
0.771681
0.755563
0.739395
0.723188
0.706953
0.690701
0.674443
0.658191
0.641956
0.62575
0.609584
0.593471
0.577422
0.561448
0.545562
0.529774
0.514095
0.498536
0.483107
0.467818
0.452677
0.437693
0.422874
0.408228
0.393759
0.379475
0.365379
0.351475
0.337766
0.324253
0.310938
0.297821
0.2849
0.272175
0.259643
0.247301
0.235146
0.223175
0.211385
0.199772
0.188334
0.17707
0.165978
0.155059
0.144316
0.133753
0.123376
0.113195
0.103221
0.0934692
0.0839577
0.0747073
0.0657421
0.0570893
0.0487787
0.0408429
0.033316
0.0262342
0.0196343
0.013553
0.00802646
0.00308878
-0.00122885
-0.00489936
-0.00790129
-0.01022
-0.0118492
-0.0127924
-0.0130643
-0.0126939
-0.0117179
-0.0102115
-0.00818862
-0.00594697
-0.00296558
-0.0018717
1.84617
1.84272
1.83887
1.83472
1.83044
1.82631
1.82219
1.81795
1.81359
1.80914
1.80461
1.79998
1.79525
1.79042
1.78548
1.78044
1.77529
1.77003
1.76466
1.75917
1.75356
1.74783
1.74197
1.73599
1.72988
1.72363
1.71725
1.71073
1.70407
1.69726
1.6903
1.68319
1.67593
1.66851
1.66093
1.65319
1.64527
1.63719
1.62893
1.6205
1.61189
1.60309
1.59411
1.58494
1.57558
1.56602
1.55626
1.5463
1.53614
1.52577
1.51519
1.5044
1.49339
1.48217
1.47073
1.45906
1.44717
1.43506
1.42272
1.41016
1.39736
1.38434
1.37108
1.3576
1.34388
1.32993
1.31575
1.30135
1.28671
1.27184
1.25675
1.24144
1.22591
1.21016
1.19419
1.17801
1.16163
1.14505
1.12827
1.1113
1.09414
1.07681
1.05931
1.04164
1.02382
1.00586
0.987753
0.969522
0.951174
0.932718
0.914167
0.895532
0.876824
0.858056
0.83924
0.820389
0.801517
0.782637
0.763762
0.744907
0.726085
0.707311
0.688599
0.669962
0.651415
0.632972
0.614645
0.596448
0.578393
0.560493
0.542759
0.525202
0.507833
0.490661
0.473693
0.456938
0.440402
0.42409
0.408006
0.392154
0.376534
0.361148
0.345994
0.331072
0.316377
0.301908
0.287658
0.273624
0.259799
0.246178
0.232757
0.219531
0.206495
0.193647
0.180987
0.168516
0.156237
0.144158
0.132288
0.12064
0.109232
0.0980855
0.0872249
0.0766799
0.0664837
0.0566735
0.0472894
0.0383745
0.029974
0.0221344
0.0149023
0.00832388
0.00244285
-0.00270035
-0.00707035
-0.0106383
-0.0133838
-0.0152965
-0.016378
-0.0166436
-0.016126
-0.0148684
-0.0129588
-0.0104177
-0.00758965
-0.00388841
-0.00231217
2.08064
2.07685
2.07262
2.06812
2.06349
2.05899
2.05449
2.04986
2.0451
2.04024
2.03528
2.03021
2.02503
2.01973
2.01432
2.00879
2.00313
1.99735
1.99145
1.9854
1.97923
1.97291
1.96646
1.95986
1.95311
1.94621
1.93916
1.93195
1.92457
1.91703
1.90932
1.90144
1.89339
1.88515
1.87673
1.86812
1.85932
1.85032
1.84113
1.83173
1.82213
1.81232
1.8023
1.79205
1.78159
1.7709
1.75999
1.74884
1.73746
1.72584
1.71398
1.70187
1.68952
1.67692
1.66406
1.65095
1.63759
1.62396
1.61007
1.59592
1.58151
1.56683
1.55189
1.53667
1.52119
1.50545
1.48944
1.47316
1.45662
1.43982
1.42275
1.40543
1.38786
1.37003
1.35195
1.33363
1.31508
1.29629
1.27728
1.25804
1.23859
1.21894
1.19909
1.17905
1.15884
1.13846
1.11792
1.09723
1.07641
1.05546
1.03441
1.01326
0.992025
0.970724
0.94937
0.927977
0.906561
0.885137
0.863722
0.842332
0.820982
0.799691
0.778473
0.757345
0.736324
0.715425
0.694664
0.674057
0.653618
0.633361
0.613301
0.593449
0.573817
0.554417
0.535258
0.516348
0.497694
0.479303
0.461179
0.443324
0.42574
0.408426
0.391382
0.374604
0.358086
0.341825
0.325812
0.310041
0.294503
0.279189
0.264093
0.249206
0.234521
0.220034
0.205742
0.191645
0.177744
0.164046
0.150561
0.137305
0.124297
0.111561
0.0991267
0.0870299
0.0753102
0.0640126
0.0531862
0.0428837
0.0331608
0.0240748
0.0156837
0.00804479
0.00121295
-0.0047609
-0.00983166
-0.0139621
-0.0171247
-0.0193041
-0.0204993
-0.0207255
-0.0200189
-0.0184286
-0.0160559
-0.0129288
-0.00944008
-0.00493675
-0.00279996
2.30868
2.30471
2.30028
2.29558
2.29076
2.28607
2.28134
2.27648
2.27147
2.26634
2.26111
2.25576
2.25028
2.24467
2.23893
2.23306
2.22704
2.22089
2.21459
2.20814
2.20153
2.19478
2.18786
2.18077
2.17352
2.1661
2.1585
2.15072
2.14275
2.1346
2.12626
2.11772
2.10897
2.10003
2.09087
2.0815
2.07191
2.06209
2.05205
2.04178
2.03127
2.02053
2.00953
1.99829
1.9868
1.97505
1.96303
1.95076
1.93821
1.92539
1.91229
1.89891
1.88525
1.87131
1.85707
1.84254
1.82772
1.81259
1.79717
1.78145
1.76542
1.74909
1.73246
1.71552
1.69827
1.68072
1.66286
1.64469
1.62623
1.60746
1.5884
1.56904
1.54939
1.52945
1.50923
1.48873
1.46796
1.44693
1.42564
1.40409
1.38231
1.36029
1.33804
1.31559
1.29293
1.27008
1.24705
1.22386
1.20052
1.17704
1.15343
1.12972
1.10592
1.08205
1.05811
1.03414
1.01014
0.986136
0.962147
0.938191
0.914287
0.890452
0.866707
0.84307
0.81956
0.796194
0.772992
0.749971
0.727148
0.704539
0.68216
0.660026
0.63815
0.616544
0.595219
0.574185
0.55345
0.53302
0.5129
0.493092
0.473597
0.454415
0.435541
0.41697
0.398698
0.380714
0.363009
0.345573
0.328394
0.31146
0.294759
0.278279
0.262011
0.245946
0.230078
0.214405
0.198926
0.183647
0.168578
0.153736
0.139142
0.124823
0.110815
0.0971593
0.0839024
0.0710982
0.0588056
0.0470883
0.0360133
0.0256505
0.0160702
0.00734231
-0.000465818
-0.00729152
-0.0130789
-0.017781
-0.0213625
-0.023802
-0.0250952
-0.0252565
-0.0243253
-0.0223569
-0.0194661
-0.0156887
-0.0114681
-0.00608577
-0.00331757
2.54053
2.53626
2.53149
2.52648
2.52137
2.51634
2.51127
2.50605
2.50067
2.49517
2.48954
2.48378
2.47788
2.47183
2.46564
2.45929
2.4528
2.44614
2.43932
2.43234
2.42518
2.41785
2.41035
2.40266
2.39478
2.3867
2.37844
2.36997
2.36129
2.35241
2.3433
2.33398
2.32443
2.31466
2.30464
2.29439
2.28389
2.27314
2.26214
2.25088
2.23935
2.22756
2.21548
2.20313
2.1905
2.17757
2.16436
2.15084
2.13702
2.1229
2.10846
2.09371
2.07864
2.06325
2.04754
2.03149
2.01511
1.9984
1.98135
1.96396
1.94624
1.92817
1.90975
1.891
1.8719
1.85246
1.83267
1.81255
1.79208
1.77128
1.75015
1.72868
1.70689
1.68478
1.66235
1.63961
1.61657
1.59324
1.56961
1.54571
1.52154
1.49711
1.47244
1.44753
1.42239
1.39705
1.37151
1.34579
1.31991
1.29388
1.26772
1.24144
1.21507
1.18862
1.16211
1.13556
1.109
1.08243
1.05589
1.0294
1.00297
0.976633
0.950401
0.9243
0.898351
0.872574
0.84699
0.82162
0.796482
0.771594
0.746976
0.722642
0.698609
0.67489
0.651498
0.628442
0.605733
0.583376
0.561375
0.539735
0.518453
0.497528
0.476955
0.456727
0.436835
0.417266
0.398008
0.379046
0.360363
0.341944
0.323771
0.305828
0.288101
0.270576
0.253244
0.236098
0.219137
0.202363
0.185787
0.169425
0.153301
0.137446
0.1219
0.106711
0.0919349
0.0776341
0.0638786
0.0507442
0.0383108
0.0266618
0.0158818
0.00605456
-0.00273888
-0.0104227
-0.0169287
-0.0221993
-0.0261901
-0.0288731
-0.0302395
-0.0303028
-0.0291047
-0.0267067
-0.0232372
-0.0187407
-0.0137129
-0.00736787
-0.00389054
2.76868
2.76419
2.75915
2.7539
2.74856
2.74329
2.73794
2.73242
2.72674
2.72092
2.71497
2.70886
2.7026
2.69618
2.6896
2.68286
2.67594
2.66884
2.66157
2.65411
2.64647
2.63863
2.63059
2.62234
2.61389
2.60523
2.59634
2.58723
2.57789
2.56832
2.55851
2.54845
2.53814
2.52757
2.51674
2.50564
2.49427
2.48262
2.47068
2.45846
2.44594
2.43311
2.41998
2.40654
2.39278
2.3787
2.36429
2.34954
2.33446
2.31903
2.30326
2.28713
2.27065
2.2538
2.2366
2.21902
2.20107
2.18275
2.16406
2.14498
2.12553
2.10569
2.08547
2.06487
2.04388
2.02252
2.00077
1.97864
1.95614
1.93326
1.91001
1.88639
1.86241
1.83808
1.81339
1.78837
1.76301
1.73732
1.71132
1.68501
1.65841
1.63152
1.60436
1.57695
1.5493
1.52141
1.49332
1.46504
1.43657
1.40795
1.37919
1.35032
1.32134
1.29229
1.26318
1.23404
1.20489
1.17575
1.14665
1.11761
1.08866
1.05981
1.03109
1.00254
0.974158
0.945984
0.918037
0.89034
0.862915
0.835781
0.80896
0.782468
0.756325
0.730545
0.705141
0.680126
0.655508
0.631296
0.607493
0.584101
0.56112
0.538544
0.516368
0.494582
0.473173
0.452125
0.431422
0.411043
0.390967
0.371172
0.351635
0.332335
0.31325
0.294362
0.275656
0.257121
0.238753
0.220551
0.202524
0.18469
0.167074
0.149711
0.132646
0.115934
0.0996392
0.0838358
0.0686055
0.054037
0.040225
0.0272676
0.0152649
0.00431627
-0.00548211
-0.01404
-0.021276
-0.0271206
-0.0315196
-0.034437
-0.0358594
-0.0357983
-0.0342978
-0.0314253
-0.0273228
-0.0220438
-0.0161387
-0.00875172
-0.00450081
3.00131
2.99652
2.99114
2.98559
2.97996
2.97436
2.96866
2.96277
2.95671
2.9505
2.94414
2.93761
2.93092
2.92404
2.91699
2.90975
2.90233
2.89471
2.88689
2.87887
2.87064
2.8622
2.85353
2.84465
2.83553
2.82617
2.81657
2.80672
2.79662
2.78626
2.77564
2.76474
2.75356
2.7421
2.73035
2.7183
2.70595
2.69329
2.68032
2.66702
2.65339
2.63943
2.62513
2.61049
2.59549
2.58013
2.56441
2.54832
2.53186
2.51502
2.49779
2.48017
2.46215
2.44374
2.42493
2.4057
2.38607
2.36603
2.34557
2.32469
2.30339
2.28167
2.25953
2.23697
2.21398
2.19058
2.16675
2.14251
2.11786
2.09279
2.06732
2.04145
2.01518
1.98852
1.96149
1.93408
1.9063
1.87818
1.84971
1.82091
1.79179
1.76237
1.73265
1.70267
1.67242
1.64194
1.61123
1.58033
1.54923
1.51798
1.48659
1.45507
1.42346
1.39178
1.36005
1.3283
1.29656
1.26484
1.23317
1.20159
1.17011
1.13877
1.10759
1.0766
1.04582
1.01529
0.985018
0.95504
0.925378
0.896054
0.86709
0.838508
0.810326
0.782562
0.75523
0.728343
0.701911
0.675943
0.650442
0.625409
0.600843
0.576738
0.553084
0.529869
0.507076
0.484686
0.462675
0.441019
0.41969
0.398659
0.377896
0.357373
0.337061
0.316934
0.296973
0.277159
0.257484
0.237945
0.218549
0.199312
0.180262
0.161437
0.142889
0.124679
0.106883
0.0895844
0.0728796
0.0568719
0.0416714
0.0273931
0.014154
0.00207044
-0.00874496
-0.0181861
-0.0261571
-0.0325756
-0.0373764
-0.0405153
-0.0419731
-0.041759
-0.0399189
-0.0365256
-0.0317353
-0.0256103
-0.0187583
-0.0102492
-0.00516001
3.23302
3.22796
3.22225
3.21642
3.21053
3.20463
3.19858
3.19235
3.18593
3.17934
3.17259
3.16565
3.15853
3.15121
3.1437
3.13599
3.12807
3.11994
3.11159
3.10301
3.09421
3.08517
3.07588
3.06635
3.05657
3.04652
3.03621
3.02563
3.01476
3.00361
2.99216
2.98042
2.96837
2.956
2.94332
2.9303
2.91695
2.90327
2.88923
2.87484
2.86008
2.84496
2.82946
2.81358
2.79731
2.78065
2.76358
2.74611
2.72822
2.70992
2.69119
2.67203
2.65244
2.6324
2.61193
2.591
2.56963
2.5478
2.52551
2.50277
2.47956
2.4559
2.43177
2.40717
2.38212
2.35661
2.33064
2.30421
2.27733
2.25001
2.22224
2.19404
2.16541
2.13636
2.1069
2.07703
2.04677
2.01614
1.98513
1.95377
1.92208
1.89006
1.85773
1.82511
1.79223
1.75909
1.72572
1.69214
1.65838
1.62445
1.59038
1.5562
1.52193
1.4876
1.45323
1.41885
1.38449
1.35018
1.31595
1.28182
1.24783
1.21401
1.18038
1.14697
1.11382
1.08095
1.04839
1.01616
0.984305
0.952836
0.921781
0.891163
0.861002
0.831318
0.802128
0.773444
0.745279
0.717641
0.690533
0.663957
0.637909
0.612381
0.587362
0.562836
0.538782
0.515175
0.491986
0.469185
0.446735
0.4246
0.402742
0.381124
0.35971
0.338464
0.31736
0.296373
0.275488
0.254698
0.234007
0.213431
0.192999
0.172754
0.152752
0.133065
0.113776
0.094985
0.0768004
0.0593422
0.0427383
0.0271215
0.0126272
-0.00060952
-0.0124581
-0.0227955
-0.0315104
-0.0385063
-0.0437067
-0.0470578
-0.0485346
-0.0481433
-0.045931
-0.0419758
-0.0364477
-0.0294179
-0.0215541
-0.0118473
-0.00586172
3.46934
3.46395
3.45788
3.45171
3.44552
3.43926
3.43283
3.42619
3.41935
3.41234
3.40513
3.39773
3.39012
3.3823
3.37427
3.36601
3.35753
3.34882
3.33986
3.33066
3.32121
3.31149
3.30152
3.29127
3.28074
3.26992
3.25881
3.2474
3.23569
3.22366
3.2113
3.19862
3.1856
3.17223
3.15852
3.14444
3.12999
3.11517
3.09997
3.08438
3.06839
3.05199
3.03519
3.01796
3.00031
2.98222
2.96369
2.94472
2.92529
2.9054
2.88505
2.86423
2.84293
2.82115
2.79889
2.77613
2.75289
2.72915
2.70491
2.68016
2.65492
2.62918
2.60293
2.57618
2.54893
2.52118
2.49293
2.46419
2.43496
2.40526
2.37507
2.34442
2.31331
2.28174
2.24974
2.2173
2.18445
2.1512
2.11756
2.08354
2.04917
2.01445
1.97942
1.94409
1.90848
1.87261
1.83651
1.8002
1.7637
1.72704
1.69025
1.65336
1.61639
1.57937
1.54233
1.5053
1.46832
1.43141
1.3946
1.35793
1.32143
1.28513
1.24907
1.21327
1.17777
1.14259
1.10778
1.07335
1.03934
1.00578
0.972687
0.940093
0.90802
0.876489
0.845516
0.815119
0.785308
0.756093
0.727478
0.699463
0.672044
0.645211
0.618949
0.59324
0.568057
0.54337
0.519144
0.49534
0.471914
0.448821
0.426013
0.403442
0.381063
0.358832
0.33671
0.314667
0.292679
0.270735
0.248836
0.226995
0.205243
0.183627
0.162209
0.141069
0.120305
0.100027
0.0803619
0.0614465
0.0434277
0.026458
0.0106934
-0.0037116
-0.016607
-0.0278515
-0.0373169
-0.0448924
-0.0504888
-0.0540429
-0.0555225
-0.0549307
-0.0523154
-0.0477594
-0.0414465
-0.0334567
-0.0245195
-0.0135427
-0.00660625
3.70686
3.70115
3.6947
3.6882
3.6817
3.67509
3.66825
3.6612
3.65394
3.64648
3.63881
3.63093
3.62282
3.61449
3.60591
3.5971
3.58804
3.57872
3.56914
3.55929
3.54916
3.53875
3.52805
3.51705
3.50575
3.49413
3.48219
3.46993
3.45732
3.44437
3.43107
3.41741
3.40337
3.38896
3.37416
3.35897
3.34338
3.32737
3.31095
3.2941
3.27681
3.25908
3.2409
3.22226
3.20315
3.18357
3.16351
3.14296
3.12191
3.10036
3.07831
3.05574
3.03265
3.00903
2.98489
2.96022
2.93501
2.90926
2.88297
2.85614
2.82876
2.80084
2.77237
2.74336
2.71381
2.68372
2.6531
2.62195
2.59027
2.55808
2.52538
2.49218
2.45849
2.42432
2.38968
2.35459
2.31905
2.28309
2.24673
2.20997
2.17285
2.13537
2.09756
2.05945
2.02105
1.9824
1.94351
1.90441
1.86513
1.82571
1.78616
1.74652
1.70682
1.66709
1.62737
1.58768
1.54806
1.50855
1.46917
1.42997
1.39097
1.35222
1.31374
1.27558
1.23776
1.20031
1.16328
1.1267
1.09059
1.05498
1.01992
0.985408
0.951489
0.918179
0.8855
0.853467
0.822096
0.791393
0.761366
0.732013
0.703329
0.675303
0.647917
0.621148
0.594965
0.569333
0.544207
0.519542
0.495284
0.471378
0.447763
0.424383
0.401178
0.378094
0.355083
0.332102
0.309121
0.286121
0.263098
0.240066
0.217055
0.194116
0.171318
0.148751
0.126525
0.104767
0.0836183
0.0632372
0.0437907
0.0254529
0.00840107
-0.00718843
-0.0211449
-0.033308
-0.043532
-0.0516903
-0.0576809
-0.0614301
-0.0628989
-0.0620864
-0.0590409
-0.0538496
-0.0467097
-0.0377092
-0.0276422
-0.0153278
-0.00739101
3.94908
3.94301
3.93613
3.92927
3.92243
3.91542
3.90814
3.90062
3.89289
3.88494
3.87676
3.86835
3.85969
3.85078
3.84161
3.83218
3.82247
3.81249
3.80222
3.79166
3.78079
3.76962
3.75812
3.7463
3.73415
3.72165
3.7088
3.6956
3.68202
3.66806
3.65372
3.63899
3.62385
3.6083
3.59232
3.57592
3.55907
3.54178
3.52403
3.50581
3.48712
3.46794
3.44827
3.4281
3.40742
3.38622
3.3645
3.34225
3.31945
3.29611
3.27222
3.24777
3.22276
3.19718
3.17103
3.14429
3.11698
3.08909
3.0606
3.03154
3.00188
2.97164
2.94082
2.90941
2.87742
2.84485
2.81172
2.77801
2.74375
2.70894
2.67359
2.63771
2.60131
2.56441
2.52701
2.48914
2.4508
2.41203
2.37283
2.33323
2.29325
2.25291
2.21224
2.17126
2.12999
2.08847
2.04673
2.00478
1.96267
1.92042
1.87806
1.83564
1.79318
1.75072
1.70829
1.66592
1.62366
1.58154
1.5396
1.49787
1.45639
1.4152
1.37434
1.33383
1.29373
1.25405
1.21485
1.17615
1.13799
1.1004
1.06341
1.02705
0.991352
0.956335
0.922023
0.888435
0.855586
0.823486
0.792141
0.76155
0.731708
0.702601
0.674209
0.646505
0.619453
0.59301
0.567127
0.541745
0.516803
0.492232
0.467961
0.443918
0.420032
0.396236
0.372466
0.348672
0.324812
0.300859
0.276804
0.252659
0.228453
0.204243
0.180104
0.156137
0.132465
0.109232
0.0865999
0.0647461
0.0438602
0.0241397
0.00578541
-0.0110036
-0.0260349
-0.0391274
-0.0501169
-0.058861
-0.065244
-0.0691818
-0.0706276
-0.0695765
-0.0660768
-0.0602195
-0.0522146
-0.042158
-0.0309095
-0.017195
-0.00821352
4.19399
4.18755
4.18023
4.17298
4.16579
4.15836
4.15061
4.1426
4.13437
4.12591
4.11719
4.10822
4.09897
4.08946
4.07966
4.06958
4.05919
4.04851
4.03751
4.02619
4.01454
4.00255
3.99022
3.97753
3.96447
3.95104
3.93723
3.92302
3.90842
3.8934
3.87796
3.86208
3.84577
3.82901
3.81178
3.79409
3.77592
3.75725
3.73809
3.71842
3.69823
3.67752
3.65627
3.63447
3.61212
3.58921
3.56573
3.54167
3.51702
3.49179
3.46595
3.43951
3.41246
3.38479
3.35651
3.3276
3.29807
3.2679
3.23711
3.20569
3.17363
3.14095
3.10764
3.07371
3.03916
3.00399
2.96822
2.93184
2.89487
2.85733
2.81921
2.78053
2.74131
2.70156
2.6613
2.62054
2.57931
2.53762
2.4955
2.45297
2.41005
2.36677
2.32315
2.27923
2.23503
2.19059
2.14593
2.10109
2.0561
2.01099
1.9658
1.92057
1.87533
1.83012
1.78497
1.73993
1.69503
1.65032
1.60582
1.56159
1.51765
1.47405
1.43083
1.38803
1.34568
1.30382
1.2625
1.22174
1.18158
1.14207
1.10322
1.06507
1.02766
0.991009
0.95514
0.920075
0.885831
0.852421
0.81985
0.788119
0.757222
0.727143
0.69786
0.669342
0.641549
0.61443
0.587927
0.561973
0.536493
0.511407
0.486629
0.462073
0.437653
0.413285
0.388893
0.364412
0.339788
0.314987
0.289993
0.264813
0.239479
0.214048
0.188608
0.163268
0.138167
0.113466
0.0893482
0.0660142
0.0436774
0.0225602
0.0028881
-0.0151153
-0.0312342
-0.0452664
-0.0570287
-0.0663617
-0.073136
-0.0772566
-0.078669
-0.0773642
-0.0733897
-0.06684
-0.0579373
-0.0467842
-0.0343079
-0.0191363
-0.00907083
4.44374
4.43688
4.42908
4.42141
4.41384
4.40595
4.39768
4.38914
4.38037
4.37134
4.36204
4.35245
4.34257
4.33239
4.32191
4.31112
4.3
4.28855
4.27675
4.26461
4.25211
4.23924
4.22599
4.21236
4.19832
4.18388
4.16902
4.15373
4.13801
4.12183
4.1052
4.08809
4.07051
4.05243
4.03386
4.01477
3.99516
3.97502
3.95433
3.9331
3.9113
3.88892
3.86597
3.84242
3.81827
3.79352
3.76814
3.74214
3.71551
3.68823
3.66031
3.63174
3.6025
3.57261
3.54204
3.51081
3.4789
3.44632
3.41307
3.37914
3.34453
3.30926
3.27331
3.2367
3.19944
3.16152
3.12296
3.08377
3.04395
3.00352
2.9625
2.92089
2.87871
2.83599
2.79274
2.74897
2.70472
2.66001
2.61485
2.56929
2.52333
2.47702
2.43038
2.38344
2.33623
2.2888
2.24117
2.19338
2.14546
2.09745
2.04939
2.00132
1.95328
1.90531
1.85744
1.80972
1.76219
1.71489
1.66786
1.62114
1.57478
1.52881
1.48327
1.43821
1.39366
1.34967
1.30628
1.26351
1.22142
1.18004
1.1394
1.09953
1.06048
1.02226
0.984905
0.94844
0.912882
0.878245
0.844537
0.811759
0.779904
0.748958
0.718896
0.689682
0.661271
0.633607
0.606621
0.580237
0.554366
0.528915
0.503782
0.478864
0.454057
0.429261
0.404384
0.379344
0.354076
0.328534
0.302694
0.27656
0.250164
0.223568
0.196865
0.170179
0.143665
0.117504
0.0919002
0.0670793
0.0432806
0.0207531
-0.000250945
-0.0194824
-0.0367013
-0.051683
-0.0642242
-0.074149
-0.0813137
-0.0856124
-0.0869829
-0.0854115
-0.0809451
-0.0736809
-0.0638522
-0.0515679
-0.0378231
-0.0211434
-0.00995957
4.69718
4.68988
4.68157
4.67345
4.66548
4.6571
4.64829
4.63919
4.62983
4.62021
4.61028
4.60003
4.58948
4.5786
4.56739
4.55583
4.54393
4.53166
4.51902
4.506
4.49259
4.47878
4.46455
4.44991
4.43483
4.41931
4.40333
4.38688
4.36996
4.35255
4.33465
4.31623
4.29728
4.27781
4.25779
4.23721
4.21607
4.19435
4.17204
4.14913
4.12561
4.10146
4.07669
4.05128
4.02521
3.99849
3.9711
3.94303
3.91428
3.88484
3.8547
3.82386
3.79231
3.76004
3.72706
3.69336
3.65894
3.6238
3.58794
3.55136
3.51406
3.47605
3.43732
3.3979
3.35778
3.31697
3.27549
3.23334
3.19054
3.1471
3.10304
3.05837
3.01312
2.96731
2.92095
2.87407
2.82669
2.77885
2.73057
2.68187
2.6328
2.58337
2.53363
2.48361
2.43334
2.38286
2.33221
2.28143
2.23055
2.17962
2.12868
2.07776
2.02691
1.97618
1.9256
1.87521
1.82507
1.77521
1.72568
1.67651
1.62775
1.57945
1.53165
1.48438
1.4377
1.39163
1.34623
1.30153
1.25756
1.21438
1.17201
1.1305
1.08987
1.05016
1.0114
0.973609
0.936815
0.901032
0.866272
0.832536
0.799818
0.768105
0.737369
0.707572
0.678663
0.65058
0.623246
0.59657
0.570453
0.544785
0.519446
0.494316
0.469271
0.444192
0.418968
0.3935
0.367707
0.341532
0.314942
0.287936
0.260545
0.232836
0.20491
0.176907
0.148997
0.121383
0.0942925
0.0679783
0.0427074
0.0187571
-0.00359244
-0.0240648
-0.0423947
-0.0583344
-0.0716606
-0.0821797
-0.0897339
-0.0942067
-0.095528
-0.0936799
-0.0887078
-0.0807111
-0.0699335
-0.056489
-0.0414404
-0.0232075
-0.0108758
4.95559
4.94782
4.93896
4.93035
4.92194
4.91303
4.90363
4.89392
4.88394
4.87366
4.86306
4.85211
4.84082
4.82918
4.81718
4.80481
4.79205
4.7789
4.76535
4.75138
4.73699
4.72216
4.70689
4.69115
4.67495
4.65826
4.64107
4.62338
4.60517
4.58643
4.56715
4.54731
4.52691
4.50592
4.48435
4.46217
4.43938
4.41596
4.3919
4.36719
4.34182
4.31578
4.28905
4.26163
4.23351
4.20468
4.17513
4.14485
4.11383
4.08207
4.04956
4.01629
3.98227
3.94748
3.91192
3.8756
3.8385
3.80064
3.76201
3.72261
3.68246
3.64155
3.59989
3.55749
3.51435
3.4705
3.42594
3.38068
3.33475
3.28816
3.24092
3.19306
3.1446
3.09556
3.04597
2.99586
2.94525
2.89417
2.84266
2.79074
2.73846
2.68584
2.63293
2.57975
2.52636
2.47278
2.41907
2.36526
2.31139
2.25751
2.20366
2.14989
2.09623
2.04274
1.98946
1.93643
1.8837
1.83131
1.77931
1.72774
1.67664
1.62606
1.57605
1.52663
1.47787
1.42979
1.38245
1.33587
1.29011
1.2452
1.20118
1.15808
1.11595
1.07482
1.03472
0.995685
0.95773
0.920879
0.885146
0.850535
0.817043
0.784655
0.753345
0.723071
0.693779
0.665398
0.637843
0.611011
0.584789
0.559049
0.533654
0.508461
0.483326
0.458108
0.432676
0.40691
0.380714
0.354014
0.326769
0.298972
0.270654
0.241886
0.212779
0.183485
0.154196
0.125136
0.0965592
0.0687462
0.0419936
0.0166088
-0.00709841
-0.0288233
-0.0482742
-0.0651796
-0.0792953
-0.0904105
-0.0983536
-0.102997
-0.104264
-0.102131
-0.0966421
-0.0878995
-0.0761549
-0.0615269
-0.0451448
-0.0253201
-0.0118152
5.21835
5.21007
5.20062
5.19151
5.18262
5.17315
5.16312
5.15276
5.14211
5.13115
5.11982
5.10812
5.09605
5.0836
5.07075
5.05751
5.04384
5.02975
5.01522
5.00024
4.9848
4.96889
4.95249
4.93559
4.91817
4.90024
4.88176
4.86274
4.84315
4.82299
4.80224
4.78088
4.75891