/*--------------------------------*- C++ -*----------------------------------*\
  =========                 |
  \\      /  F ield         | OpenFOAM: The Open Source CFD Toolbox
   \\    /   O peration     | Website:  https://openfoam.org
    \\  /    A nd           | Version:  13
     \\/     M anipulation  |
\*---------------------------------------------------------------------------*/
FoamFile
{
    format      ascii;
    class       surfaceScalarField;
    location    "0.1";
    object      phi;
}
// * * * * * * * * * * * * * * * * * * * * * * * * * * * * * * * * * * * * * //

dimensions      [0 3 -1 0 0 0 0];

internalField   nonuniform List<scalar> 
137229
(
14.3654
-0.000113841
-14.3682
14.3626
-0.00011663
14.3597
-0.000119738
14.3567
-0.000122399
14.3537
-0.000125544
14.3506
-0.000128952
14.3475
-0.0001325
14.3443
-0.000136262
14.341
-0.000140175
14.3377
-0.000144273
14.3343
-0.000148529
14.3309
-0.000153036
14.3274
-0.00015768
14.3238
-0.000162555
14.3201
-0.000167668
14.3164
-0.000172936
14.3126
-0.000178487
14.3087
-0.000184268
14.3048
-0.000190261
14.3008
-0.000196534
14.2966
-0.000203039
14.2925
-0.000209819
14.2882
-0.000216886
14.2838
-0.000224223
14.2794
-0.000231846
14.2749
-0.000239771
14.2702
-0.000248013
14.2655
-0.00025656
14.2607
-0.00026543
14.2558
-0.000274644
14.2508
-0.00028416
14.2457
-0.000294092
14.2405
-0.000304339
14.2352
-0.000314927
14.2298
-0.000325969
14.2243
-0.00033731
14.2187
-0.000349097
14.2129
-0.000361296
14.2071
-0.000373846
14.2011
-0.000386866
14.195
-0.000400266
14.1888
-0.000414137
14.1825
-0.000428452
14.176
-0.000443153
14.1694
-0.000458394
14.1627
-0.000474031
14.1558
-0.00049016
14.1488
-0.000506758
14.1417
-0.000523862
14.1344
-0.000541391
14.127
-0.000559446
14.1194
-0.000577976
14.1117
-0.000597024
14.1038
-0.000616542
14.0957
-0.000636573
14.0875
-0.000657101
14.0792
-0.000678111
14.0706
-0.000699648
14.0619
-0.00072164
14.053
-0.000744133
14.0439
-0.000767144
14.0347
-0.000790572
14.0252
-0.000814556
14.0156
-0.000838935
14.0057
-0.00086379
13.9957
-0.00088911
13.9854
-0.000914826
13.975
-0.00094096
13.9643
-0.000967503
13.9534
-0.000994416
13.9423
-0.00102169
13.931
-0.00104926
13.9194
-0.00107715
13.9076
-0.00110534
13.8956
-0.00113375
13.8833
-0.00116235
13.8708
-0.00119118
13.858
-0.00122008
13.8449
-0.00124909
13.8316
-0.00127815
13.818
-0.00130719
13.8041
-0.00133617
13.7899
-0.00136504
13.7754
-0.0013937
13.7607
-0.00142215
13.7456
-0.00145025
13.7302
-0.00147798
13.7146
-0.00150521
13.6985
-0.00153196
13.6822
-0.00155799
13.6655
-0.00158333
13.6485
-0.00160785
13.6311
-0.00163139
13.6133
-0.00165396
13.5952
-0.00167532
13.5767
-0.00169542
13.5579
-0.00171411
13.5386
-0.0017313
13.5189
-0.00174679
13.4988
-0.00176048
13.4783
-0.00177221
13.4574
-0.00178181
13.4361
-0.00178911
13.4143
-0.00179398
13.392
-0.00179617
13.3693
-0.00179558
13.3461
-0.00179191
13.3224
-0.00178504
13.2982
-0.00177474
13.2735
-0.00176074
13.2483
-0.00174287
13.2226
-0.00172086
13.1963
-0.00169445
13.1694
-0.00166339
13.142
-0.00162739
13.1141
-0.00158623
13.0855
-0.00153951
13.0563
-0.00148697
13.0266
-0.00142832
12.9961
-0.00136318
12.9651
-0.00129119
12.9334
-0.00121204
12.901
-0.00112529
12.8679
-0.00103057
12.8341
-0.000927448
12.7997
-0.000815523
12.7644
-0.000694308
12.7285
-0.000563336
12.6917
-0.000422163
12.6542
-0.000270236
12.6159
-0.000107097
12.5767
6.78785e-05
12.5367
0.000255232
12.4959
0.000455453
12.4542
0.000669244
12.4116
0.000897163
12.368
0.00113986
12.3236
0.00139788
12.2782
0.00167198
12.2318
0.00196275
12.1844
0.00227082
12.1359
0.00259683
12.0865
0.00294146
12.0359
0.00330532
11.9843
0.00368898
11.9315
0.00409304
11.8776
0.00451808
11.8225
0.00496462
11.7662
0.00543308
11.7087
0.00592395
11.65
0.00643756
11.5899
0.00697425
11.5285
0.00753424
11.4658
0.0081177
11.4017
0.00872475
11.3362
0.00935543
11.2693
0.0100096
11.2008
0.0106873
11.1309
0.0113881
11.0594
0.012112
10.9864
0.0128585
10.9117
0.0136273
10.8354
0.0144182
10.7574
0.0152303
10.6777
0.0160656
10.5962
0.0169122
0.0178264
13.6788
0.00243947
-13.6814
13.6762
0.00248686
13.6736
0.00253505
13.6709
0.00258469
13.6681
0.00263493
13.6653
0.00268604
13.6624
0.00273809
13.6595
0.00279112
13.6565
0.00284517
13.6535
0.0029002
13.6504
0.00295629
13.6472
0.00301345
13.644
0.00307171
13.6407
0.00313101
13.6373
0.00319146
13.6339
0.00325307
13.6304
0.00331583
13.6268
0.00337977
13.6232
0.00344493
13.6195
0.00351134
13.6157
0.00357898
13.6119
0.00364791
13.6079
0.00371816
13.6039
0.00378969
13.5998
0.00386268
13.5956
0.00393695
13.5914
0.00401272
13.587
0.00408989
13.5826
0.00416854
13.5781
0.00424869
13.5735
0.00433039
13.5687
0.00441364
13.5639
0.00449849
13.559
0.004585
13.554
0.00467314
13.5489
0.00476298
13.5437
0.00485462
13.5384
0.00494798
13.533
0.00504317
13.5275
0.00514024
13.5218
0.00523916
13.5161
0.00534005
13.5102
0.00544294
13.5042
0.00554784
13.4981
0.00565482
13.4919
0.00576393
13.4855
0.00587522
13.479
0.00598871
13.4724
0.0061045
13.4656
0.00622263
13.4587
0.00634314
13.4517
0.0064661
13.4445
0.00659159
13.4372
0.00671962
13.4297
0.00685034
13.422
0.00698374
13.4142
0.00711991
13.4063
0.00725897
13.3981
0.00740091
13.3899
0.00754585
13.3814
0.00769393
13.3728
0.00784515
13.3639
0.00799963
13.3549
0.00815745
13.3458
0.00831872
13.3364
0.00848353
13.3268
0.00865195
13.3171
0.00882414
13.3071
0.0090002
13.2969
0.00918019
13.2865
0.00936426
13.2759
0.00955256
13.2651
0.00974516
13.2541
0.00994224
13.2428
0.0101439
13.2313
0.0103503
13.2195
0.0105616
13.2075
0.0107779
13.1953
0.0109995
13.1828
0.0112263
13.17
0.0114587
13.157
0.0116968
13.1437
0.0119408
13.1301
0.0121909
13.1162
0.0124472
13.102
0.01271
13.0876
0.0129795
13.0728
0.0132559
13.0578
0.0135394
13.0424
0.0138303
13.0267
0.0141287
13.0106
0.0144351
12.9942
0.0147495
12.9775
0.0150723
12.9604
0.0154038
12.943
0.0157443
12.9252
0.016094
12.907
0.0164532
12.8884
0.0168224
12.8695
0.0172017
12.8501
0.0175916
12.8303
0.0179923
12.8101
0.0184044
12.7895
0.018828
12.7685
0.0192638
12.7469
0.0197119
12.725
0.0201728
12.7025
0.0206471
12.6796
0.021135
12.6562
0.0216371
12.6323
0.0221539
12.6079
0.0226857
12.583
0.0232332
12.5575
0.0237969
12.5315
0.0243772
12.505
0.0249748
12.4779
0.0255902
12.4501
0.0262239
12.4218
0.0268768
12.3929
0.0275493
12.3634
0.0282421
12.3332
0.028956
12.3024
0.0296915
12.2709
0.0304495
12.2388
0.0312308
12.2059
0.032036
12.1724
0.032866
12.1381
0.0337217
12.103
0.0346039
12.0673
0.0355135
12.0307
0.0364515
11.9934
0.0374189
11.9552
0.0384165
11.9162
0.0394455
11.8764
0.0405069
11.8357
0.0416017
11.7941
0.0427311
11.7516
0.0438962
11.7081
0.0450982
11.6638
0.0463382
11.6184
0.0476174
11.5721
0.048937
11.5247
0.0502982
11.4763
0.0517022
11.4269
0.0531502
11.3763
0.0546435
11.3247
0.0561831
11.2718
0.0577701
11.2179
0.0594058
11.1627
0.0610911
11.1063
0.062827
11.0487
0.0646146
10.9898
0.0664548
10.9295
0.0683482
10.868
0.0702958
10.805
0.0722981
10.7407
0.0743559
10.6749
0.0764695
10.6076
0.0786396
10.5389
0.0808665
10.4686
0.0831506
10.3967
0.0854921
10.3232
0.0878916
10.2481
0.090349
10.1713
0.0928667
10.0928
0.0954352
0.0981089
13.021
0.00477168
-13.0233
13.0186
0.0048657
13.0162
0.00496146
13.0137
0.00505968
13.0112
0.00515952
13.0086
0.00526124
13.006
0.00536497
13.0033
0.00547082
13.0005
0.00557872
12.9978
0.0056888
12.9949
0.00580108
12.992
0.00591561
12.989
0.0060324
12.986
0.00615159
12.9829
0.00627311
12.9798
0.00639707
12.9766
0.00652356
12.9733
0.00665253
12.97
0.0067841
12.9666
0.00691835
12.9631
0.00705523
12.9596
0.00719495
12.9559
0.00733739
12.9522
0.00748276
12.9485
0.00763104
12.9446
0.00778233
12.9407
0.00793661
12.9367
0.00809408
12.9326
0.00825469
12.9284
0.00841856
12.9242
0.00858574
12.9198
0.00875635
12.9154
0.0089304
12.9109
0.00910798
12.9063
0.00928919
12.9016
0.00947405
12.8968
0.00966276
12.8918
0.00985525
12.8868
0.0100517
12.8817
0.0102522
12.8765
0.0104568
12.8712
0.0106657
12.8657
0.0108788
12.8602
0.0110963
12.8545
0.0113183
12.8488
0.0115449
12.8429
0.0117762
12.8368
0.0120123
12.8307
0.0122534
12.8244
0.0124995
12.818
0.0127507
12.8115
0.0130071
12.8048
0.0132691
12.798
0.0135364
12.791
0.0138095
12.7839
0.0140884
12.7766
0.0143731
12.7692
0.014664
12.7617
0.014961
12.754
0.0152644
12.7461
0.0155743
12.738
0.0158909
12.7298
0.0162144
12.7214
0.0165448
12.7129
0.0168825
12.7041
0.0172275
12.6952
0.0175801
12.6861
0.0179404
12.6768
0.0183086
12.6673
0.018685
12.6576
0.0190698
12.6476
0.0194632
12.6375
0.0198653
12.6272
0.0202765
12.6166
0.0206969
12.6059
0.0211269
12.5949
0.0215666
12.5836
0.0220164
12.5721
0.0224765
12.5604
0.0229471
12.5485
0.0234286
12.5362
0.0239212
12.5237
0.0244254
12.511
0.0249413
12.498
0.0254693
12.4847
0.0260097
12.4711
0.026563
12.4572
0.0271294
12.443
0.0277093
12.4286
0.028303
12.4138
0.0289111
12.3987
0.0295338
12.3833
0.0301716
12.3675
0.030825
12.3514
0.0314943
12.335
0.03218
12.3182
0.0328826
12.3011
0.0336026
12.2835
0.0343403
12.2656
0.0350966
12.2474
0.0358716
12.2287
0.0366662
12.2096
0.0374806
12.1901
0.0383157
12.1702
0.0391719
12.1499
0.0400499
12.1291
0.0409503
12.1079
0.0418738
12.0862
0.0428209
12.064
0.0437924
12.0414
0.044789
12.0183
0.0458114
11.9946
0.0468604
11.9705
0.0479367
11.9458
0.0490412
11.9206
0.0501747
11.8949
0.0513379
11.8686
0.0525318
11.8417
0.0537573
11.8142
0.0550153
11.7862
0.0563067
11.7575
0.0576327
11.7282
0.0589941
11.6983
0.0603921
11.6677
0.0618277
11.6364
0.0633021
11.6044
0.0648164
11.5718
0.0663719
11.5384
0.0679698
11.5043
0.0696115
11.4695
0.0712981
11.4339
0.0730312
11.3975
0.0748121
11.3603
0.0766423
11.3223
0.0785233
11.2834
0.0804568
11.2437
0.0824441
11.2031
0.084487
11.1616
0.0865871
11.1192
0.0887462
11.0759
0.0909659
11.0315
0.093248
10.9862
0.0955942
10.9399
0.0980065
10.8926
0.100486
10.8442
0.103036
10.7947
0.105656
10.7442
0.10835
10.6924
0.111118
10.6396
0.113963
10.5855
0.116886
10.5302
0.119888
10.4737
0.122972
10.4159
0.126138
10.3568
0.129388
10.2964
0.132724
10.2346
0.136146
10.1714
0.139656
10.1068
0.143254
10.0407
0.146943
9.97318
0.150722
9.90408
0.154593
9.83341
0.158557
9.76114
0.162615
9.68724
0.166769
9.61167
0.17101
0.175397
12.3967
0.00690552
-12.3988
12.3945
0.0070429
12.3923
0.00718291
12.39
0.00732641
12.3877
0.00747243
12.3854
0.00762134
12.383
0.00777327
12.3805
0.00792828
12.378
0.00808645
12.3754
0.00824789
12.3728
0.00841258
12.3702
0.00858067
12.3674
0.00875218
12.3647
0.00892721
12.3618
0.00910578
12.3589
0.00928808
12.356
0.00947406
12.353
0.0096639
12.3499
0.00985757
12.3468
0.0100553
12.3436
0.010257
12.3403
0.0104629
12.337
0.0106731
12.3336
0.0108875
12.3301
0.0111064
12.3265
0.0113298
12.3229
0.0115577
12.3192
0.0117905
12.3154
0.012028
12.3116
0.0122704
12.3077
0.0125178
12.3036
0.0127704
12.2996
0.0130282
12.2954
0.0132914
12.2911
0.01356
12.2867
0.0138342
12.2823
0.0141142
12.2777
0.0143999
12.2731
0.0146917
12.2684
0.0149895
12.2635
0.0152936
12.2586
0.015604
12.2535
0.015921
12.2484
0.0162446
12.2431
0.016575
12.2378
0.0169124
12.2323
0.0172569
12.2267
0.0176087
12.221
0.0179679
12.2151
0.0183347
12.2092
0.0187094
12.2031
0.019092
12.1969
0.0194827
12.1905
0.0198818
12.1841
0.0202894
12.1774
0.0207058
12.1707
0.0211311
12.1638
0.0215655
12.1567
0.0220094
12.1495
0.0224628
12.1422
0.022926
12.1347
0.0233993
12.127
0.0238828
12.1192
0.0243769
12.1112
0.0248818
12.103
0.0253978
12.0947
0.025925
12.0861
0.0264639
12.0774
0.0270147
12.0685
0.0275776
12.0595
0.0281531
12.0502
0.0287413
12.0407
0.0293426
12.031
0.0299574
12.0211
0.030586
12.011
0.0312287
12.0007
0.0318858
11.9902
0.0325579
11.9794
0.0332451
11.9684
0.033948
11.9572
0.0346669
11.9457
0.0354023
11.934
0.0361545
11.922
0.0369241
11.9097
0.0377114
11.8972
0.0385169
11.8844
0.0393411
11.8714
0.0401845
11.858
0.0410477
11.8444
0.0419309
11.8305
0.042835
11.8163
0.0437604
11.8017
0.0447076
11.7869
0.0456773
11.7717
0.04667
11.7562
0.0476864
11.7404
0.048727
11.7242
0.0497927
11.7076
0.0508839
11.6907
0.0520014
11.6734
0.053146
11.6558
0.0543182
11.6378
0.0555189
11.6193
0.0567489
11.6005
0.0580089
11.5812
0.0592998
11.5616
0.0606223
11.5415
0.0619774
11.5209
0.0633659
11.4999
0.0647888
11.4785
0.0662468
11.4565
0.0677411
11.4341
0.0692727
11.4112
0.0708423
11.3878
0.0724514
11.3639
0.0741007
11.3394
0.0757915
11.3144
0.0775249
11.2889
0.079302
11.2628
0.0811241
11.2361
0.0829925
11.2088
0.0849084
11.1809
0.0868732
11.1524
0.0888882
11.1233
0.090955
11.0935
0.0930748
11.0631
0.0952493
11.032
0.09748
11.0002
0.0997686
10.9677
0.102117
10.9345
0.104526
10.9005
0.106999
10.8658
0.109536
10.8303
0.11214
10.794
0.114813
10.7569
0.117557
10.719
0.120373
10.6802
0.123264
10.6405
0.126233
10.6
0.129281
10.5586
0.13241
10.5162
0.135624
10.4729
0.138923
10.4285
0.142311
10.3832
0.14579
10.3369
0.149363
10.2895
0.153031
10.2411
0.156797
10.1915
0.160663
10.1409
0.164632
10.0891
0.168706
10.0361
0.172887
9.98186
0.177177
9.92642
0.181578
9.86971
0.186093
9.81171
0.190723
9.75239
0.195469
9.69171
0.200335
9.62964
0.205321
9.56616
0.210429
9.50122
0.21566
9.4348
0.221017
9.36685
0.226501
9.29735
0.232113
9.22627
0.237856
9.15355
0.243722
0.249773
11.8013
0.00886079
-11.8032
11.7993
0.00903841
11.7973
0.00921963
11.7952
0.00940516
11.7931
0.00959417
11.7909
0.00978694
11.7887
0.00998369
11.7864
0.0101845
11.7841
0.0103895
11.7818
0.0105987
11.7794
0.0108123
11.7769
0.0110303
11.7744
0.0112528
11.7719
0.0114799
11.7693
0.0117117
11.7666
0.0119484
11.7639
0.01219
11.7611
0.0124365
11.7583
0.0126883
11.7554
0.0129452
11.7524
0.0132076
11.7494
0.0134754
11.7464
0.0137488
11.7432
0.0140279
11.74
0.0143128
11.7367
0.0146037
11.7334
0.0149007
11.73
0.0152038
11.7265
0.0155134
11.7229
0.0158295
11.7193
0.0161522
11.7156
0.0164816
11.7118
0.016818
11.7079
0.0171614
11.704
0.0175122
11.6999
0.0178702
11.6958
0.0182359
11.6916
0.0186093
11.6873
0.0189906
11.6829
0.0193799
11.6784
0.0197775
11.6739
0.0201835
11.6692
0.0205982
11.6644
0.0210217
11.6595
0.0214542
11.6545
0.0218959
11.6495
0.022347
11.6443
0.0228078
11.6389
0.0232785
11.6335
0.0237592
11.628
0.0242502
11.6223
0.0247518
11.6165
0.0252642
11.6106
0.0257876
11.6046
0.0263224
11.5984
0.0268687
11.5921
0.0274268
11.5857
0.027997
11.5791
0.0285796
11.5724
0.0291749
11.5656
0.0297832
11.5586
0.0304048
11.5514
0.0310399
11.5441
0.031689
11.5366
0.0323524
11.529
0.0330303
11.5212
0.0337232
11.5132
0.0344314
11.5051
0.0351553
11.4968
0.0358953
11.4883
0.0366517
11.4796
0.037425
11.4707
0.0382155
11.4616
0.0390237
11.4524
0.0398501
11.4429
0.0406951
11.4332
0.041559
11.4234
0.0424425
11.4133
0.043346
11.4029
0.04427
11.3924
0.0452151
11.3816
0.0461816
11.3706
0.0471703
11.3593
0.0481816
11.3478
0.0492162
11.3361
0.0502745
11.3241
0.0513573
11.3118
0.0524651
11.2992
0.0535986
11.2864
0.0547585
11.2733
0.0559453
11.2599
0.0571599
11.2462
0.0584029
11.2322
0.0596751
11.2179
0.0609772
11.2033
0.06231
11.1883
0.0636743
11.173
0.0650708
11.1574
0.0665005
11.1415
0.0679643
11.1251
0.0694628
11.1085
0.0709972
11.0914
0.0725683
11.074
0.0741771
11.0562
0.0758244
11.038
0.0775116
11.0193
0.0792394
11.0003
0.0810089
10.9809
0.0828213
10.961
0.0846777
10.9406
0.0865792
10.9198
0.0885271
10.8986
0.0905225
10.8769
0.0925666
10.8547
0.0946609
10.832
0.0968065
10.8087
0.0990049
10.785
0.101257
10.7607
0.103566
10.7359
0.105931
10.7106
0.108355
10.6846
0.110839
10.6581
0.113385
10.631
0.115995
10.6033
0.118669
10.575
0.121411
10.546
0.124222
10.5164
0.127104
10.4861
0.130058
10.4551
0.133088
10.4235
0.136194
10.3911
0.13938
10.358
0.142647
10.3241
0.145998
10.2895
0.149435
10.2541
0.152961
10.2179
0.156578
10.1808
0.160289
10.143
0.164097
10.1043
0.168003
10.0647
0.172012
10.0242
0.176126
9.98273
0.180347
9.94036
0.184679
9.89703
0.189125
9.8527
0.193687
9.80736
0.198369
9.76099
0.203173
9.71355
0.208103
9.66502
0.213161
9.61537
0.21835
9.56459
0.223673
9.51263
0.229133
9.45948
0.234732
9.4051
0.240473
9.34946
0.246358
9.29254
0.25239
9.23431
0.258571
9.17472
0.264903
9.11376
0.271389
9.05139
0.27803
8.98758
0.284829
8.9223
0.291787
8.8555
0.298907
8.78717
0.306193
8.71725
0.313636
0.3213
11.2349
0.0106513
-11.2367
11.2331
0.0108665
11.2312
0.011086
11.2293
0.0113108
11.2274
0.0115398
11.2254
0.0117735
11.2234
0.0120121
11.2213
0.0122557
11.2192
0.0125043
11.217
0.0127582
11.2148
0.0130174
11.2126
0.013282
11.2103
0.0135521
11.2079
0.013828
11.2055
0.0141096
11.2031
0.0143971
11.2006
0.0146906
11.198
0.0149904
11.1954
0.0152964
11.1927
0.0156089
11.19
0.015928
11.1872
0.0162538
11.1844
0.0165865
11.1815
0.0169261
11.1785
0.017273
11.1755
0.0176272
11.1724
0.0179889
11.1693
0.0183582
11.1661
0.0187354
11.1628
0.0191206
11.1594
0.0195139
11.156
0.0199156
11.1525
0.0203258
11.1489
0.0207447
11.1452
0.0211726
11.1415
0.0216096
11.1377
0.0220558
11.1338
0.0225116
11.1298
0.0229772
11.1257
0.0234527
11.1215
0.0239384
11.1173
0.0244344
11.1129
0.0249412
11.1085
0.0254587
11.104
0.0259875
11.0993
0.0265275
11.0946
0.0270793
11.0898
0.0276429
11.0848
0.0282187
11.0798
0.0288069
11.0746
0.0294078
11.0694
0.0300218
11.064
0.0306491
11.0585
0.0312901
11.0528
0.0319449
11.0471
0.0326141
11.0412
0.0332978
11.0352
0.0339965
11.0291
0.0347105
11.0228
0.0354401
11.0164
0.0361857
11.0099
0.0369477
11.0032
0.0377265
10.9964
0.0385225
10.9894
0.0393361
10.9822
0.0401676
10.9749
0.0410176
10.9675
0.0418865
10.9599
0.0427747
10.9521
0.0436827
10.9441
0.044611
10.936
0.04556
10.9277
0.0465303
10.9192
0.0475224
10.9105
0.0485369
10.9016
0.0495742
10.8925
0.0506349
10.8833
0.0517196
10.8738
0.052829
10.8641
0.0539635
10.8542
0.0551239
10.844
0.0563108
10.8337
0.0575247
10.8231
0.0587666
10.8123
0.0600369
10.8012
0.0613364
10.7899
0.0626659
10.7784
0.0640261
10.7665
0.0654178
10.7545
0.0668418
10.7421
0.0682988
10.7295
0.0697898
10.7166
0.0713156
10.7034
0.072877
10.6899
0.074475
10.6761
0.0761106
10.6619
0.0777846
10.6475
0.0794979
10.6328
0.0812518
10.6177
0.0830471
10.6023
0.0848849
10.5865
0.0867663
10.5704
0.0886924
10.5539
0.0906644
10.537
0.0926834
10.5198
0.0947507
10.5022
0.0968673
10.4841
0.0990348
10.4657
0.101254
10.4468
0.103527
10.4276
0.105854
10.4079
0.108238
10.3877
0.110679
10.3671
0.113179
10.346
0.11574
10.3245
0.118363
10.3024
0.121049
10.2799
0.123801
10.2568
0.12662
10.2332
0.129508
10.2091
0.132467
10.1845
0.135498
10.1592
0.138603
10.1335
0.141785
10.1071
0.145045
10.0801
0.148386
10.0525
0.15181
10.0243
0.155319
9.99545
0.158915
9.96593
0.162601
9.93575
0.166379
9.90488
0.170252
9.8733
0.174223
9.84101
0.178293
9.80797
0.182468
9.77419
0.186748
9.73963
0.191137
9.70428
0.195638
9.66812
0.200255
9.63113
0.204991
9.5933
0.209848
9.55459
0.214831
9.515
0.219942
9.47449
0.225186
9.43305
0.230566
9.39065
0.236085
9.34727
0.241747
9.30289
0.247555
9.25748
0.253513
9.21102
0.259625
9.16347
0.265894
9.11483
0.272322
9.06504
0.278915
9.0141
0.285673
8.96197
0.292602
8.90863
0.299704
8.85404
0.306981
8.79817
0.314437
8.741
0.322074
8.68249
0.329894
8.62262
0.337902
8.56135
0.346098
8.49865
0.354486
8.43449
0.363068
8.36884
0.371849
8.30165
0.38082
0.390048
10.6954
0.0122938
-10.697
10.6937
0.0125439
10.692
0.0127991
10.6902
0.0130605
10.6885
0.0133268
10.6866
0.0135987
10.6848
0.0138763
10.6829
0.0141597
10.6809
0.0144491
10.6789
0.0147446
10.6769
0.0150464
10.6748
0.0153545
10.6727
0.0156692
10.6706
0.0159905
10.6683
0.0163186
10.6661
0.0166537
10.6638
0.0169959
10.6614
0.0173453
10.659
0.0177021
10.6566
0.0180666
10.6541
0.0184388
10.6515
0.0188189
10.6489
0.019207
10.6462
0.0196035
10.6435
0.0200084
10.6407
0.0204219
10.6378
0.0208442
10.6349
0.0212756
10.6319
0.0217162
10.6289
0.0221662
10.6258
0.0226258
10.6226
0.0230953
10.6193
0.0235748
10.616
0.0240647
10.6126
0.024565
10.6091
0.0250761
10.6056
0.0255982
10.602
0.0261315
10.5983
0.0266762
10.5945
0.0272328
10.5906
0.0278014
10.5867
0.0283822
10.5827
0.0289756
10.5785
0.0295818
10.5743
0.0302011
10.57
0.030834
10.5656
0.0314805
10.5611
0.032141
10.5565
0.032816
10.5518
0.0335056
10.547
0.0342103
10.5421
0.0349304
10.5371
0.0356662
10.532
0.0364181
10.5267
0.0371864
10.5214
0.0379717
10.5159
0.0387742
10.5103
0.0395943
10.5046
0.0404325
10.4987
0.0412891
10.4927
0.0421648
10.4866
0.0430597
10.4804
0.0439745
10.474
0.0449096
10.4675
0.0458655
10.4608
0.0468426
10.454
0.0478416
10.447
0.0488628
10.4399
0.0499068
10.4326
0.0509743
10.4251
0.0520657
10.4175
0.0531816
10.4097
0.0543227
10.4017
0.0554894
10.3936
0.0566826
10.3853
0.0579028
10.3767
0.0591505
10.368
0.0604267
10.3591
0.0617318
10.35
0.0630668
10.3407
0.0644322
10.3312
0.0658288
10.3215
0.0672575
10.3115
0.0687189
10.3013
0.070214
10.2909
0.0717435
10.2803
0.0733083
10.2694
0.0749093
10.2583
0.0765474
10.2469
0.0782235
10.2353
0.0799386
10.2233
0.0816936
10.2112
0.0834896
10.1987
0.0853275
10.186
0.0872084
10.173
0.0891334
10.1596
0.0911037
10.146
0.0931203
10.1321
0.0951844
10.1178
0.0972972
10.1033
0.0994599
10.0884
0.101674
10.0731
0.10394
10.0575
0.10626
10.0416
0.108636
10.0252
0.111067
10.0086
0.113557
9.99149
0.116106
9.97403
0.118716
9.95617
0.121389
9.93789
0.124125
9.91921
0.126927
9.90009
0.129796
9.88053
0.132735
9.86053
0.135744
9.84007
0.138825
9.81914
0.141981
9.79772
0.145213
9.77582
0.148523
9.75342
0.151914
9.7305
0.155386
9.70705
0.158943
9.68307
0.162587
9.65853
0.16632
9.63343
0.170144
9.60776
0.174061
9.58149
0.178075
9.55463
0.182187
9.52714
0.186401
9.49902
0.190719
9.47026
0.195144
9.44083
0.199679
9.41073
0.204327
9.37993
0.209091
9.34842
0.213975
9.31619
0.218982
9.28321
0.224115
9.24947
0.229379
9.21495
0.234776
9.17963
0.24031
9.14349
0.245986
9.10651
0.251808
9.06868
0.257778
9.02996
0.263902
8.99034
0.270183
8.9498
0.276626
8.90831
0.283235
8.86586
0.290013
8.8224
0.296966
8.77793
0.304096
8.73242
0.311408
8.68583
0.318906
8.63815
0.326594
8.58935
0.334476
8.5394
0.342554
8.48827
0.350833
8.43594
0.359316
8.38237
0.368006
8.32753
0.376906
8.27141
0.38602
8.21396
0.395351
8.15516
0.4049
8.09497
0.414672
8.03337
0.42467
7.97032
0.434898
7.90579
0.445349
0.45609
10.1818
0.0137994
-10.1833
10.1802
0.0140821
10.1787
0.0143706
10.1771
0.0146661
10.1754
0.0149673
10.1737
0.0152748
10.172
0.0155887
10.1703
0.0159094
10.1685
0.0162368
10.1667
0.0165713
10.1648
0.0169129
10.1629
0.0172617
10.1609
0.017618
10.159
0.0179818
10.1569
0.0183535
10.1548
0.018733
10.1527
0.0191207
10.1505
0.0195167
10.1483
0.0199211
10.1461
0.0203342
10.1437
0.0207561
10.1414
0.0211871
10.139
0.0216273
10.1365
0.022077
10.134
0.0225363
10.1314
0.0230055
10.1287
0.0234848
10.126
0.0239744
10.1233
0.0244745
10.1205
0.0249854
10.1176
0.0255073
10.1146
0.0260405
10.1116
0.0265852
10.1085
0.0271417
10.1054
0.0277102
10.1022
0.0282909
10.0989
0.0288843
10.0955
0.0294906
10.0921
0.03011
10.0886
0.0307428
10.085
0.0313894
10.0813
0.0320501
10.0776
0.0327252
10.0737
0.0334149
10.0698
0.0341197
10.0658
0.03484
10.0617
0.0355759
10.0575
0.0363279
10.0533
0.0370964
10.0489
0.0378818
10.0444
0.0386844
10.0398
0.0395047
10.0352
0.040343
10.0304
0.0411997
10.0255
0.0420754
10.0205
0.0429704
10.0154
0.0438851
10.0102
0.0448201
10.0048
0.0457759
9.99935
0.0467528
9.99376
0.0477515
9.98805
0.0487723
9.98221
0.049816
9.97623
0.0508828
9.97013
0.0519736
9.96388
0.0530888
9.95749
0.0542289
9.95096
0.0553946
9.94428
0.0565866
9.93745
0.0578053
9.93046
0.0590516
9.92332
0.060326
9.91601
0.0616292
9.90854
0.0629619
9.9009
0.0643249
9.89308
0.0657189
9.88509
0.0671446
9.87691
0.0686028
9.86855
0.0700943
9.86
0.0716199
9.85125
0.0731805
9.8423
0.0747769
9.83315
0.0764101
9.82378
0.0780808
9.81421
0.0797901
9.80441
0.0815389
9.79439
0.0833281
9.78414
0.0851589
9.77366
0.0870321
9.76293
0.0889489
9.75196
0.0909103
9.74074
0.0929175
9.72926
0.0949716
9.71751
0.0970737
9.70549
0.0992251
9.6932
0.101427
9.68062
0.103681
9.66776
0.105987
9.65459
0.108348
9.64112
0.110765
9.62735
0.113239
9.61325
0.115771
9.59882
0.118363
9.58407
0.121017
9.56897
0.123734
9.55352
0.126515
9.53772
0.129363
9.52154
0.132278
9.505
0.135263
9.48807
0.138319
9.47075
0.141447
9.45302
0.144651
9.43489
0.147932
9.41633
0.151291
9.39734
0.15473
9.37792
0.158252
9.35804
0.161859
9.3377
0.165552
9.31689
0.169335
9.29559
0.173208
9.2738
0.177175
9.25151
0.181238
9.2287
0.185399
9.20536
0.189662
9.18147
0.194027
9.15703
0.198499
9.13203
0.20308
9.10644
0.207773
9.08026
0.212581
9.05347
0.217507
9.02606
0.222554
8.99802
0.227726
8.96932
0.233026
8.93995
0.238458
8.9099
0.244025
8.87915
0.249732
8.84768
0.255582
8.81548
0.261579
8.78253
0.267727
8.74881
0.274032
8.7143
0.280496
8.67898
0.287125
8.64284
0.293924
8.60584
0.300896
8.56798
0.308047
8.52922
0.315382
8.48955
0.322904
8.44895
0.330619
8.40738
0.338531
8.36483
0.346645
8.32128
0.354966
8.27669
0.363497
8.23104
0.372244
8.1843
0.381211
8.13645
0.390401
8.08747
0.399819
8.03732
0.409468
7.98597
0.419352
7.9334
0.429475
7.87958
0.43984
7.82448
0.450451
7.76807
0.46131
7.71032
0.472421
7.6512
0.483788
7.59069
0.495416
7.52874
0.507297
0.519502
9.69273
0.0151812
-9.69411
9.69131
0.0154943
9.68987
0.0158139
9.6884
0.0161412
9.68689
0.0164749
9.68535
0.0168156
9.68377
0.0171636
9.68216
0.017519
9.68052
0.017882
9.67884
0.0182528
9.67712
0.0186316
9.67536
0.0190185
9.67356
0.0194137
9.67173
0.0198173
9.66985
0.0202297
9.66794
0.0206508
9.66597
0.0210811
9.66397
0.0215207
9.66192
0.0219696
9.65983
0.0224283
9.65769
0.0228969
9.6555
0.0233755
9.65326
0.0238646
9.65097
0.0243641
9.64864
0.0248745
9.64625
0.0253959
9.6438
0.0259286
9.6413
0.0264728
9.63875
0.0270289
9.63614
0.027597
9.63347
0.0281774
9.63074
0.0287704
9.62795
0.0293764
9.62509
0.0299955
9.62217
0.0306281
9.61919
0.0312744
9.61614
0.0319349
9.61302
0.0326097
9.60983
0.0332993
9.60657
0.034004
9.60324
0.0347241
9.59983
0.03546
9.59634
0.036212
9.59277
0.0369805
9.58913
0.0377658
9.5854
0.0385684
9.58159
0.0393887
9.57769
0.040227
9.5737
0.0410838
9.56962
0.0419595
9.56545
0.0428546
9.56119
0.0437694
9.55683
0.0447045
9.55237
0.0456603
9.5478
0.0466373
9.54314
0.047636
9.53837
0.048657
9.53349
0.0497006
9.52849
0.0507675
9.52339
0.0518583
9.51817
0.0529733
9.51283
0.0541134
9.50736
0.055279
9.50177
0.0564708
9.49606
0.0576893
9.49021
0.0589352
9.48423
0.0602092
9.47811
0.061512
9.47186
0.0628442
9.46546
0.0642065
9.45891
0.0655997
9.45221
0.0670245
9.44536
0.0684818
9.43835
0.0699722
9.43117
0.0714965
9.42384
0.0730557
9.41633
0.0746505
9.40865
0.0762818
9.4008
0.0779506
9.39276
0.0796578
9.38454
0.0814041
9.37612
0.0831908
9.36751
0.0850186
9.3587
0.0868887
9.34969
0.0888022
9.34047
0.0907599
9.33104
0.0927632
9.32138
0.094813
9.3115
0.0969106
9.3014
0.0990571
9.29105
0.101254
9.28047
0.103502
9.26964
0.105802
9.25855
0.108157
9.24721
0.110567
9.23561
0.113033
9.22373
0.115558
9.21157
0.118142
9.19914
0.120787
9.18641
0.123495
9.17338
0.126266
9.16005
0.129103
9.1464
0.132008
9.13244
0.134981
9.11815
0.138025
9.10352
0.141141
9.08855
0.144332
9.07323
0.147598
9.05755
0.150942
9.0415
0.154366
9.02508
0.157872
9.00827
0.161461
8.99107
0.165136
8.97346
0.168899
8.95544
0.172752
8.93699
0.176697
8.91811
0.180737
8.89879
0.184873
8.87902
0.189109
8.85878
0.193447
8.83806
0.197889
8.81686
0.202438
8.79517
0.207097
8.77296
0.211868
8.75023
0.216754
8.72697
0.221759
8.70317
0.226886
8.6788
0.232137
8.65387
0.237516
8.62835
0.243027
8.60223
0.248672
8.5755
0.254457
8.54814
0.260384
8.52014
0.266457
8.49149
0.272682
8.46216
0.279061
8.43214
0.2856
8.40142
0.292303
8.36997
0.299175
8.33778
0.30622
8.30483
0.313444
8.27111
0.320851
8.23658
0.328447
8.20124
0.336237
8.16506
0.344226
8.12803
0.352419
8.09011
0.360822
8.05129
0.36944
8.01154
0.378279
7.97084
0.387343
7.92917
0.396637
7.8865
0.406166
7.84281
0.415936
7.79807
0.425951
7.75225
0.436216
7.70534
0.446734
7.65729
0.457511
7.6081
0.46855
7.55772
0.479854
7.50613
0.491429
7.4533
0.503277
7.39921
0.515402
7.34382
0.527808
7.28711
0.540498
7.22905
0.553478
7.16961
0.566742
0.58036
9.2271
0.016449
-9.22837
9.2258
0.0167904
9.22448
0.0171391
9.22312
0.017496
9.22174
0.01786
9.22032
0.0182318
9.21887
0.0186115
9.21739
0.0189994
9.21588
0.0193957
9.21433
0.0198005
9.21275
0.020214
9.21113
0.0206365
9.20948
0.0210681
9.20779
0.021509
9.20606
0.0219594
9.20429
0.0224196
9.20248
0.0228898
9.20063
0.0233701
9.19874
0.0238609
9.1968
0.0243623
9.19483
0.0248746
9.1928
0.0253979
9.19074
0.0259327
9.18862
0.0264791
9.18646
0.0270374
9.18425
0.0276078
9.18198
0.0281907
9.17967
0.0287862
9.1773
0.0293948
9.17488
0.0300166
9.17241
0.030652
9.16988
0.0313013
9.16729
0.0319647
9.16464
0.0326428
9.16194
0.0333356
9.15917
0.0340437
9.15633
0.0347673
9.15344
0.0355067
9.15047
0.0362624
9.14744
0.0370347
9.14434
0.0378241
9.14117
0.0386308
9.13793
0.0394553
9.13461
0.0402979
9.13122
0.0411592
9.12775
0.0420396
9.1242
0.0429394
9.12056
0.0438591
9.11685
0.0447992
9.11305
0.0457602
9.10916
0.0467425
9.10518
0.0477467
9.10111
0.0487732
9.09695
0.0498226
9.09269
0.0508955
9.08834
0.0519922
9.08388
0.0531135
9.07932
0.05426
9.07466
0.055432
9.06989
0.0566305
9.065
0.0578558
9.06001
0.0591087
9.0549
0.0603898
9.04967
0.0616998
9.04432
0.0630395
9.03884
0.0644094
9.03324
0.0658103
9.02751
0.067243
9.02165
0.0687082
9.01565
0.0702068
9.00951
0.0717395
9.00322
0.0733072
8.9968
0.0749106
8.99022
0.0765507
8.98349
0.0782284
8.9766
0.0799446
8.96955
0.0817003
8.96233
0.0834962
8.95495
0.0853336
8.94739
0.0872134
8.93966
0.0891367
8.93175
0.0911044
8.92365
0.0931177
8.91536
0.0951778
8.90688
0.0972857
8.89819
0.0994427
8.88931
0.10165
8.88021
0.103909
8.8709
0.10622
8.86137
0.108586
8.85162
0.111007
8.84163
0.113485
8.83142
0.116021
8.82096
0.118617
8.81025
0.121274
8.79929
0.123993
8.78807
0.126777
8.77659
0.129626
8.76483
0.132543
8.75279
0.135529
8.74047
0.138586
8.72786
0.141715
8.71495
0.144918
8.70174
0.148198
8.68821
0.151555
8.67436
0.154992
8.66018
0.158511
8.64566
0.162114
8.6308
0.165803
8.61559
0.16958
8.60001
0.173447
8.58407
0.177406
8.56774
0.181459
8.55103
0.18561
8.53392
0.18986
8.51641
0.194211
8.49848
0.198667
8.48012
0.203229
8.46133
0.2079
8.4421
0.212684
8.4224
0.217582
8.40224
0.222598
8.3816
0.227735
8.36048
0.232995
8.33885
0.238382
8.31671
0.243899
8.29404
0.24955
8.27084
0.255337
8.2471
0.261265
8.22278
0.267337
8.1979
0.273558
8.17242
0.279931
8.14635
0.286461
8.11965
0.293151
8.09233
0.300007
8.06436
0.307033
8.03572
0.314235
8.00641
0.321616
7.9764
0.329183
7.94568
0.336941
7.91423
0.344895
7.88203
0.353051