/*--------------------------------*- C++ -*----------------------------------*\
  =========                 |
  \\      /  F ield         | OpenFOAM: The Open Source CFD Toolbox
   \\    /   O peration     | Website:  https://openfoam.org
    \\  /    A nd           | Version:  13
     \\/     M anipulation  |
\*---------------------------------------------------------------------------*/
FoamFile
{
    format      ascii;
    class       volVectorField;
    location    "0.1";
    object      U;
}
// * * * * * * * * * * * * * * * * * * * * * * * * * * * * * * * * * * * * * //

dimensions      [0 1 -1 0 0 0 0];

internalField   nonuniform List<vector> 
68864
(
(30.0137 -0.117925 -1.30496e-21)
(30.0138 -0.1184 -3.91161e-23)
(30.0138 -0.118888 1.04907e-20)
(30.0139 -0.11936 -1.17018e-20)
(30.0139 -0.119852 1.13185e-21)
(30.0139 -0.120355 -1.72067e-21)
(30.014 -0.120864 5.25063e-21)
(30.014 -0.121381 -1.71892e-21)
(30.0141 -0.121905 1.93113e-21)
(30.0141 -0.122436 -7.01067e-21)
(30.0142 -0.122973 3.99845e-21)
(30.0142 -0.123518 4.9525e-22)
(30.0143 -0.12407 -8.10945e-21)
(30.0143 -0.124628 3.31122e-21)
(30.0144 -0.125194 4.63927e-21)
(30.0144 -0.125767 -3.04045e-21)
(30.0145 -0.126347 4.70133e-21)
(30.0145 -0.126935 3.33619e-21)
(30.0146 -0.127529 -1.67203e-21)
(30.0146 -0.128131 -5.49076e-21)
(30.0147 -0.12874 8.06218e-21)
(30.0147 -0.129356 4.10832e-21)
(30.0148 -0.12998 -5.65211e-21)
(30.0148 -0.130611 -6.37046e-21)
(30.0149 -0.13125 3.77535e-21)
(30.0149 -0.131895 -7.44725e-21)
(30.015 -0.132549 3.4044e-21)
(30.015 -0.133209 7.44154e-21)
(30.0151 -0.133877 -1.63097e-20)
(30.0152 -0.134552 -1.15008e-20)
(30.0152 -0.135235 3.51887e-21)
(30.0153 -0.135925 9.55931e-21)
(30.0153 -0.136622 -6.91592e-21)
(30.0154 -0.137327 1.84208e-20)
(30.0154 -0.138039 1.1003e-20)
(30.0155 -0.138758 -1.98099e-20)
(30.0156 -0.139485 2.02634e-20)
(30.0156 -0.140219 -9.7731e-21)
(30.0157 -0.14096 -1.21268e-20)
(30.0157 -0.141708 2.49904e-20)
(30.0158 -0.142463 -2.43933e-20)
(30.0159 -0.143225 2.35168e-20)
(30.0159 -0.143994 -8.51956e-21)
(30.016 -0.144769 3.34737e-22)
(30.0161 -0.145552 -2.53435e-20)
(30.0161 -0.146341 2.93021e-20)
(30.0162 -0.147137 -8.97714e-21)
(30.0163 -0.14794 -8.73822e-21)
(30.0163 -0.148749 -8.00555e-22)
(30.0164 -0.149564 1.20738e-20)
(30.0165 -0.150385 -9.63929e-21)
(30.0165 -0.151213 -3.54097e-21)
(30.0166 -0.152046 1.89379e-20)
(30.0167 -0.152886 -8.19386e-21)
(30.0167 -0.15373 3.63606e-21)
(30.0168 -0.154581 -8.43195e-21)
(30.0169 -0.155437 1.22838e-20)
(30.017 -0.156297 -1.08566e-20)
(30.017 -0.157163 7.40379e-21)
(30.0171 -0.158034 -1.79344e-20)
(30.0172 -0.158909 2.80234e-21)
(30.0173 -0.159789 1.35355e-20)
(30.0173 -0.160673 -3.5026e-21)
(30.0174 -0.161561 1.02362e-20)
(30.0175 -0.162452 -1.09029e-20)
(30.0176 -0.163348 3.96651e-21)
(30.0177 -0.164246 -4.76581e-21)
(30.0177 -0.165147 3.1925e-21)
(30.0178 -0.166051 2.71018e-22)
(30.0179 -0.166958 3.99703e-21)
(30.018 -0.167866 3.84358e-21)
(30.0181 -0.168777 -3.96167e-21)
(30.0182 -0.169689 -1.53319e-20)
(30.0182 -0.170602 1.71984e-20)
(30.0183 -0.171516 -7.43256e-21)
(30.0184 -0.172431 -6.06157e-21)
(30.0185 -0.173346 1.97085e-20)
(30.0186 -0.174261 -2.25347e-20)
(30.0187 -0.175176 8.81543e-21)
(30.0188 -0.176089 -1.24085e-20)
(30.0188 -0.177002 2.25106e-20)
(30.0189 -0.177913 -1.50236e-20)
(30.019 -0.178822 4.06008e-21)
(30.0191 -0.179728 1.08251e-20)
(30.0192 -0.180632 -1.34196e-20)
(30.0193 -0.181533 -2.0341e-21)
(30.0194 -0.18243 1.08831e-20)
(30.0194 -0.183323 -3.80599e-21)
(30.0195 -0.184211 -7.51168e-21)
(30.0196 -0.185095 1.35876e-20)
(30.0197 -0.185973 3.89761e-21)
(30.0198 -0.186846 4.1839e-21)
(30.0199 -0.187712 -1.74667e-20)
(30.02 -0.188572 6.97184e-21)
(30.0201 -0.189425 -1.85242e-20)
(30.0201 -0.19027 2.14433e-20)
(30.0202 -0.191107 -2.92139e-20)
(30.0203 -0.191936 2.28046e-20)
(30.0204 -0.192756 1.23121e-21)
(30.0205 -0.193566 -2.2847e-20)
(30.0206 -0.194367 3.26548e-20)
(30.0206 -0.195157 -1.0919e-20)
(30.0207 -0.195936 -1.54607e-20)
(30.0208 -0.196705 1.93089e-21)
(30.0209 -0.197461 6.19859e-21)
(30.021 -0.198206 -4.03231e-21)
(30.021 -0.198938 1.18639e-20)
(30.0211 -0.199657 3.51395e-21)
(30.0212 -0.200362 -1.5129e-20)
(30.0213 -0.201054 2.19371e-21)
(30.0213 -0.201731 2.11642e-21)
(30.0214 -0.202393 9.83769e-22)
(30.0215 -0.20304 3.158e-21)
(30.0215 -0.203671 -9.06609e-21)
(30.0216 -0.204285 1.1602e-20)
(30.0217 -0.204883 -5.06013e-21)
(30.0217 -0.205464 5.15904e-22)
(30.0218 -0.206027 7.48266e-21)
(30.0219 -0.206572 -3.14589e-21)
(30.0219 -0.207098 -4.60367e-21)
(30.022 -0.207605 -3.19867e-21)
(30.022 -0.208092 5.67948e-21)
(30.0221 -0.208559 -4.23577e-21)
(30.0222 -0.209006 8.65234e-21)
(30.0222 -0.209431 -6.13527e-22)
(30.0223 -0.209834 7.3971e-22)
(30.0223 -0.210216 -5.03719e-21)
(30.0224 -0.210574 -1.03227e-21)
(30.0224 -0.21091 -1.78264e-21)
(30.0225 -0.211221 2.79333e-21)
(30.0225 -0.211508 -1.86494e-21)
(30.0226 -0.211771 3.69313e-21)
(30.0226 -0.212008 -2.2125e-21)
(30.0226 -0.21222 -3.98301e-24)
(30.0227 -0.212405 1.44854e-21)
(30.0227 -0.212564 -2.3535e-21)
(30.0228 -0.212696 7.50363e-22)
(30.0228 -0.212801 1.60099e-22)
(30.0228 -0.212878 1.66915e-22)
(30.0229 -0.212928 9.21047e-22)
(30.0229 -0.212951 -1.95202e-21)
(30.0229 -0.212946 1.9013e-21)
(30.0229 -0.212913 -1.3137e-21)
(30.0229 -0.212854 -4.48783e-22)
(30.023 -0.212768 3.57978e-22)
(30.023 -0.212656 8.35286e-22)
(30.023 -0.212519 -1.92187e-22)
(30.023 -0.212357 -4.60879e-22)
(30.023 -0.212172 2.12568e-22)
(30.023 -0.211965 1.5771e-22)
(30.023 -0.211738 -1.71925e-22)
(30.023 -0.211493 5.78954e-23)
(30.0229 -0.21123 -1.50684e-23)
(30.0229 -0.210953 1.64975e-23)
(30.0229 -0.210664 1.40034e-23)
(30.0229 -0.210365 -1.60719e-23)
(30.0228 -0.210059 -3.97723e-23)
(30.0228 -0.209749 4.36796e-23)
(30.0227 -0.209437 -1.04796e-23)
(30.0227 -0.209126 -6.49113e-26)
(30.0226 -0.20882 -7.0655e-24)
(30.0226 -0.208522 -2.9891e-23)
(30.0225 -0.208234 2.78001e-23)
(30.0224 -0.207959 -1.29679e-23)
(30.0224 -0.207694 1.28566e-23)
(30.0223 -0.207477 -9.37522e-25)
(30.0222 -0.207135 -3.55949e-25)
(30.0141 -0.118232 -2.87624e-21)
(30.0142 -0.118665 2.52243e-21)
(30.0142 -0.11911 -3.083e-20)
(30.0143 -0.119539 4.79943e-21)
(30.0143 -0.119988 5.58338e-21)
(30.0144 -0.120449 2.26827e-20)
(30.0144 -0.120917 -2.78919e-20)
(30.0145 -0.121393 2.7418e-20)
(30.0145 -0.121875 -3.76638e-20)
(30.0146 -0.122365 4.23345e-21)
(30.0146 -0.122862 1.62099e-20)
(30.0147 -0.123367 -1.5733e-20)
(30.0148 -0.123878 -1.30338e-21)
(30.0148 -0.124398 1.49934e-20)
(30.0149 -0.124924 6.25706e-22)
(30.0149 -0.125459 -5.68148e-21)
(30.015 -0.126 1.65614e-20)
(30.0151 -0.12655 -1.19563e-20)
(30.0151 -0.127107 3.64823e-21)
(30.0152 -0.127671 3.30078e-21)
(30.0152 -0.128243 -3.79943e-21)
(30.0153 -0.128823 -2.9907e-21)
(30.0154 -0.129411 2.61502e-20)
(30.0154 -0.130006 -3.52652e-20)
(30.0155 -0.13061 -5.47018e-21)
(30.0156 -0.131221 2.80184e-20)
(30.0157 -0.13184 -1.55301e-20)
(30.0157 -0.132466 1.01435e-20)
(30.0158 -0.133101 -1.81997e-20)
(30.0159 -0.133743 1.07312e-20)
(30.0159 -0.134393 -1.33188e-20)
(30.016 -0.135051 2.72396e-20)
(30.0161 -0.135717 -2.19737e-20)
(30.0162 -0.136391 -1.66578e-20)
(30.0162 -0.137072 6.37376e-20)
(30.0163 -0.137762 2.74152e-21)
(30.0164 -0.138459 -2.99332e-20)
(30.0165 -0.139163 1.73862e-21)
(30.0166 -0.139876 1.15867e-20)
(30.0167 -0.140596 -6.58688e-21)
(30.0167 -0.141324 -1.88738e-20)
(30.0168 -0.142059 1.20431e-20)
(30.0169 -0.142802 1.41844e-20)
(30.017 -0.143553 -1.98976e-20)
(30.0171 -0.14431 -1.45516e-20)
(30.0172 -0.145076 3.11287e-20)
(30.0173 -0.145848 -5.34872e-20)
(30.0174 -0.146628 6.42856e-20)
(30.0175 -0.147414 -3.58252e-20)
(30.0176 -0.148208 -1.90199e-20)
(30.0177 -0.149008 6.23276e-21)
(30.0178 -0.149816 4.40569e-20)
(30.0179 -0.15063 -3.83007e-22)
(30.018 -0.15145 3.53878e-21)
(30.0181 -0.152277 -3.9765e-20)
(30.0182 -0.15311 -1.49971e-20)
(30.0183 -0.153949 2.58843e-20)
(30.0184 -0.154794 -1.25241e-20)
(30.0185 -0.155645 4.64379e-21)
(30.0187 -0.156502 -1.94644e-21)
(30.0188 -0.157364 1.14647e-21)
(30.0189 -0.158231 1.17736e-20)
(30.019 -0.159104 3.30807e-20)
(30.0191 -0.159981 -4.65212e-20)
(30.0193 -0.160862 2.27636e-20)
(30.0194 -0.161749 -3.52662e-20)
(30.0195 -0.162639 -1.16255e-20)
(30.0196 -0.163533 3.75369e-20)
(30.0198 -0.164431 1.40683e-20)
(30.0199 -0.165332 -9.45234e-21)
(30.02 -0.166236 -2.19877e-20)
(30.0202 -0.167143 3.30671e-20)
(30.0203 -0.168053 -1.50816e-20)
(30.0204 -0.168965 1.21317e-20)
(30.0206 -0.169878 -2.17523e-20)
(30.0207 -0.170794 1.92315e-20)
(30.0209 -0.17171 1.15097e-20)
(30.021 -0.172628 9.11674e-22)
(30.0211 -0.173546 -3.71231e-20)
(30.0213 -0.174464 2.64024e-20)
(30.0214 -0.175382 -4.16397e-20)
(30.0216 -0.176299 2.80485e-20)
(30.0217 -0.177216 -1.24935e-20)
(30.0219 -0.178131 1.55385e-20)
(30.022 -0.179044 -1.28753e-20)
(30.0222 -0.179955 2.5024e-20)
(30.0223 -0.180864 -1.88005e-20)
(30.0225 -0.18177 5.29692e-21)
(30.0226 -0.182672 -1.56897e-21)
(30.0228 -0.18357 -1.54378e-20)
(30.023 -0.184464 3.03471e-20)
(30.0231 -0.185354 -1.34841e-20)
(30.0233 -0.186238 -8.6772e-21)
(30.0234 -0.187116 -6.49973e-21)
(30.0236 -0.187989 -2.73091e-21)
(30.0237 -0.188855 7.12142e-21)
(30.0239 -0.189713 1.52514e-20)
(30.024 -0.190565 7.6985e-21)
(30.0242 -0.191408 -2.57902e-20)
(30.0244 -0.192243 -7.56728e-21)
(30.0245 -0.193069 7.76614e-21)
(30.0247 -0.193885 1.48999e-20)
(30.0248 -0.194692 3.58829e-21)
(30.025 -0.195488 -3.75546e-21)
(30.0251 -0.196273 -9.55806e-21)
(30.0253 -0.197048 -4.08856e-21)
(30.0254 -0.19781 6.19043e-21)
(30.0256 -0.19856 1.5456e-20)
(30.0257 -0.199297 -1.48605e-20)
(30.0259 -0.200021 4.23644e-21)
(30.026 -0.200731 -1.07448e-20)
(30.0262 -0.201428 1.67749e-20)
(30.0263 -0.202109 -7.79067e-21)
(30.0264 -0.202775 -2.88551e-21)
(30.0266 -0.203425 1.31853e-20)
(30.0267 -0.20406 -1.53882e-20)
(30.0269 -0.204677 -4.85435e-22)
(30.027 -0.205277 4.83624e-21)
(30.0271 -0.20586 8.00016e-21)
(30.0273 -0.206424 -7.00765e-21)
(30.0274 -0.206969 -6.13471e-21)
(30.0275 -0.207495 9.79531e-21)
(30.0277 -0.208 -5.32348e-21)
(30.0278 -0.208486 1.15416e-21)
(30.0279 -0.20895 7.64932e-22)
(30.028 -0.209392 -6.85753e-21)
(30.0282 -0.209812 7.90087e-22)
(30.0283 -0.210209 -1.37996e-22)
(30.0284 -0.210582 9.68413e-21)
(30.0285 -0.210932 -3.86871e-21)
(30.0286 -0.211256 1.71411e-21)
(30.0287 -0.211555 -2.32675e-21)
(30.0288 -0.211828 1.88069e-21)
(30.029 -0.212074 -2.70087e-21)
(30.0291 -0.212293 5.62133e-21)
(30.0292 -0.212484 -6.2214e-21)
(30.0293 -0.212647 3.96277e-21)
(30.0294 -0.212781 -3.38392e-21)
(30.0294 -0.212886 1.08491e-22)
(30.0295 -0.212962 3.83343e-21)
(30.0296 -0.213008 -7.67312e-22)
(30.0297 -0.213024 -1.32344e-21)
(30.0298 -0.213011 1.25432e-21)
(30.0298 -0.212968 3.41022e-22)
(30.0299 -0.212896 -2.0685e-21)
(30.03 -0.212796 -1.10507e-22)
(30.03 -0.212667 1.94274e-21)
(30.0301 -0.212511 -1.62654e-21)
(30.0301 -0.212329 8.73733e-22)
(30.0301 -0.212123 2.01953e-22)
(30.0301 -0.211893 -7.73315e-22)
(30.0302 -0.211642 1.85482e-22)
(30.0302 -0.211372 -4.42483e-23)
(30.0301 -0.211085 6.61667e-23)
(30.0301 -0.210783 -1.58227e-24)
(30.0301 -0.21047 6.25706e-23)
(30.03 -0.210148 -1.7242e-22)
(30.03 -0.20982 2.16073e-22)
(30.0299 -0.20949 -1.01128e-22)
(30.0299 -0.209161 3.66109e-23)
(30.0298 -0.208837 -9.72908e-23)
(30.0297 -0.20852 1.87796e-23)
(30.0296 -0.208214 4.15017e-23)
(30.0295 -0.207924 -3.15847e-23)
(30.0294 -0.207645 2.95215e-23)
(30.0293 -0.207413 -3.01309e-24)
(30.0291 -0.207061 3.13854e-24)
(30.005 -0.118167 -2.15933e-20)
(30.0051 -0.118605 -8.41651e-21)
(30.0051 -0.119054 -9.26348e-21)
(30.0052 -0.119487 2.1378e-20)
(30.0053 -0.119941 -2.66545e-20)
(30.0054 -0.120406 4.91228e-20)
(30.0054 -0.120879 -6.86746e-21)
(30.0055 -0.121359 1.87782e-21)
(30.0056 -0.121847 2.98527e-22)
(30.0057 -0.122341 4.89264e-21)
(30.0057 -0.122843 -3.55532e-20)
(30.0058 -0.123352 1.30395e-20)
(30.0059 -0.123868 1.60333e-20)
(30.006 -0.124392 1.57716e-20)
(30.0061 -0.124923 -2.02025e-20)
(30.0062 -0.125462 1.1687e-20)
(30.0063 -0.126008 -1.93891e-21)
(30.0063 -0.126562 1.31631e-21)
(30.0064 -0.127124 -1.72889e-20)
(30.0065 -0.127693 -2.90999e-21)
(30.0066 -0.128269 -9.83131e-21)
(30.0067 -0.128854 -1.05286e-20)
(30.0068 -0.129446 1.70375e-20)
(30.0069 -0.130046 4.83759e-21)
(30.007 -0.130654 -2.46851e-20)
(30.0071 -0.131269 4.28762e-20)
(30.0072 -0.131893 -3.45796e-20)
(30.0073 -0.132524 6.22753e-21)
(30.0074 -0.133163 3.03334e-20)
(30.0076 -0.13381 1.55364e-21)
(30.0077 -0.134464 -4.07961e-20)
(30.0078 -0.135127 2.99658e-20)
(30.0079 -0.135797 -3.42749e-20)
(30.008 -0.136475 -6.98374e-21)
(30.0081 -0.137161 3.01233e-20)
(30.0083 -0.137855 -6.42523e-21)
(30.0084 -0.138557 -1.01239e-20)
(30.0085 -0.139266 1.90527e-20)
(30.0086 -0.139983 5.35962e-21)
(30.0088 -0.140708 1.55016e-20)
(30.0089 -0.141441 -7.80811e-20)
(30.009 -0.142181 1.58469e-20)
(30.0092 -0.142928 8.25407e-20)
(30.0093 -0.143683 -9.38727e-20)
(30.0095 -0.144446 7.92237e-22)
(30.0096 -0.145216 5.20327e-20)
(30.0097 -0.145993 4.29403e-20)
(30.0099 -0.146777 -2.6152e-20)
(30.01 -0.147569 1.25358e-20)
(30.0102 -0.148367 -2.15886e-20)
(30.0104 -0.149172 4.97663e-21)
(30.0105 -0.149985 -2.29336e-20)
(30.0107 -0.150803 4.62879e-20)
(30.0108 -0.151629 7.45199e-21)
(30.011 -0.15246 -4.2358e-20)
(30.0112 -0.153298 -3.93244e-20)
(30.0114 -0.154142 9.11984e-21)
(30.0115 -0.154992 6.84343e-20)
(30.0117 -0.155848 -3.12025e-20)
(30.0119 -0.156709 -3.14789e-20)
(30.0121 -0.157576 -1.78356e-20)
(30.0123 -0.158448 3.44017e-20)
(30.0125 -0.159325 5.58953e-20)
(30.0126 -0.160207 -7.86025e-20)
(30.0128 -0.161093 3.36811e-20)
(30.013 -0.161984 1.31214e-20)
(30.0132 -0.162879 2.44469e-20)
(30.0134 -0.163778 -3.57372e-20)
(30.0137 -0.16468 1.0341e-20)
(30.0139 -0.165585 -1.24941e-20)
(30.0141 -0.166494 4.38471e-20)
(30.0143 -0.167405 -1.49608e-21)
(30.0145 -0.168319 -4.19758e-20)
(30.0147 -0.169235 8.96923e-21)
(30.0149 -0.170153 -1.47984e-21)
(30.0152 -0.171072 9.44775e-21)
(30.0154 -0.171992 -2.32231e-20)
(30.0156 -0.172913 -1.47353e-20)
(30.0159 -0.173835 -2.49057e-21)
(30.0161 -0.174756 1.47444e-20)
(30.0163 -0.175677 -2.01356e-20)
(30.0166 -0.176598 5.59352e-20)
(30.0168 -0.177517 -2.63238e-21)
(30.0171 -0.178435 -3.72644e-20)
(30.0173 -0.179352 4.58842e-21)
(30.0175 -0.180265 2.3513e-20)
(30.0178 -0.181176 -1.2031e-20)
(30.018 -0.182084 -4.3656e-20)
(30.0183 -0.182989 5.40797e-20)
(30.0185 -0.183889 -1.77296e-20)
(30.0188 -0.184785 -1.53443e-20)
(30.019 -0.185676 -1.33165e-20)
(30.0193 -0.186562 8.06618e-21)
(30.0196 -0.187442 5.20881e-20)
(30.0198 -0.188315 -2.25236e-20)
(30.0201 -0.189182 -1.00081e-20)
(30.0203 -0.190042 3.34807e-20)
(30.0206 -0.190894 -3.46313e-20)
(30.0208 -0.191738 2.87277e-20)
(30.0211 -0.192573 -2.84136e-20)
(30.0214 -0.1934 -5.45938e-21)
(30.0216 -0.194217 -5.40044e-22)
(30.0219 -0.195023 3.86068e-21)
(30.0221 -0.19582 1.17402e-20)
(30.0224 -0.196605 5.12973e-21)
(30.0226 -0.197379 -3.63668e-20)
(30.0229 -0.198142 1.79808e-20)
(30.0231 -0.198892 2.75304e-20)
(30.0234 -0.199629 -5.31452e-21)
(30.0236 -0.200353 -3.53459e-20)
(30.0239 -0.201063 3.81325e-20)
(30.0241 -0.201759 -1.93219e-20)
(30.0244 -0.20244 1.88366e-20)
(30.0246 -0.203106 -2.37503e-21)
(30.0249 -0.203757 -2.76434e-20)
(30.0251 -0.204391 4.27764e-21)
(30.0253 -0.205008 4.22625e-21)
(30.0256 -0.205609 5.71756e-21)
(30.0258 -0.206191 -1.49707e-21)
(30.026 -0.206756 -7.79652e-21)
(30.0263 -0.207302 -3.54779e-21)
(30.0265 -0.207828 -7.56804e-21)
(30.0267 -0.208334 2.14e-20)
(30.0269 -0.20882 4.03631e-21)
(30.0271 -0.209285 -1.55249e-20)
(30.0274 -0.209728 1.13171e-21)
(30.0276 -0.210149 3.33158e-22)
(30.0278 -0.210547 -7.00042e-21)
(30.028 -0.210921 4.92614e-21)
(30.0282 -0.21127 5.96354e-21)
(30.0284 -0.211595 6.74558e-21)
(30.0286 -0.211893 -6.11142e-21)
(30.0288 -0.212166 1.81485e-21)
(30.029 -0.212411 -6.18691e-21)
(30.0292 -0.212629 4.6545e-21)
(30.0294 -0.212818 -9.63331e-22)
(30.0296 -0.212978 1.11639e-21)
(30.0298 -0.213109 -6.23967e-22)
(30.03 -0.21321 1.33836e-21)
(30.0301 -0.21328 -2.05399e-21)
(30.0303 -0.21332 -1.49543e-23)
(30.0305 -0.21333 1.12685e-21)
(30.0306 -0.213308 1.09497e-21)
(30.0308 -0.213256 4.362e-22)
(30.0309 -0.213173 -4.07728e-21)
(30.0311 -0.213061 9.97849e-22)
(30.0312 -0.212919 2.32423e-21)
(30.0313 -0.212748 -1.62703e-21)
(30.0314 -0.212551 -1.74174e-22)
(30.0315 -0.212328 4.68661e-22)
(30.0316 -0.21208 -8.41851e-22)
(30.0316 -0.211811 6.13933e-22)
(30.0317 -0.211521 -4.69278e-23)
(30.0317 -0.211214 2.17863e-23)
(30.0317 -0.210892 2.66673e-23)
(30.0317 -0.210557 -8.47086e-25)
(30.0317 -0.210215 -1.28287e-22)
(30.0317 -0.209867 1.4554e-22)
(30.0317 -0.209517 -2.21193e-22)
(30.0316 -0.209169 3.44592e-22)
(30.0316 -0.208827 -4.37802e-23)
(30.0315 -0.208494 -1.46631e-22)
(30.0314 -0.208174 2.95032e-23)
(30.0313 -0.207871 -5.94548e-24)
(30.0312 -0.207582 -3.73834e-23)
(30.0311 -0.207343 1.28698e-23)
(30.0309 -0.206984 -7.97814e-24)
(30.0008 -0.119333 6.91718e-21)
(30.0009 -0.119741 -1.06079e-20)
(30.001 -0.120161 2.55962e-20)
(30.001 -0.120563 -2.70342e-20)
(30.0011 -0.120987 5.70372e-20)
(30.0012 -0.121423 -8.09659e-20)
(30.0013 -0.121867 4.42191e-20)
(30.0014 -0.122318 3.29542e-20)
(30.0015 -0.122776 1.52817e-20)
(30.0016 -0.123242 -4.12189e-20)
(30.0017 -0.123715 3.4492e-20)
(30.0018 -0.124195 -3.18611e-20)
(30.0019 -0.124683 1.9022e-20)
(30.002 -0.125178 -1.70492e-20)
(30.0021 -0.125681 3.48153e-21)
(30.0022 -0.126191 -2.49995e-20)
(30.0023 -0.126709 -1.24675e-20)
(30.0024 -0.127235 5.6507e-20)
(30.0025 -0.127769 -1.64389e-20)
(30.0026 -0.12831 -4.9281e-20)
(30.0027 -0.128859 -1.67195e-20)
(30.0028 -0.129417 2.06748e-20)
(30.0029 -0.129982 -2.29907e-20)
(30.003 -0.130555 4.50859e-20)
(30.0032 -0.131136 -4.94052e-21)
(30.0033 -0.131725 1.1401e-20)
(30.0034 -0.132322 -2.99228e-20)
(30.0035 -0.132927 2.28648e-20)
(30.0037 -0.133541 2.19868e-20)
(30.0038 -0.134162 1.92482e-20)
(30.0039 -0.134792 -3.23588e-20)
(30.004 -0.13543 -2.96786e-21)
(30.0042 -0.136076 -4.65362e-20)
(30.0043 -0.13673 7.73663e-20)
(30.0045 -0.137392 -6.38412e-20)
(30.0046 -0.138062 4.65533e-21)
(30.0048 -0.138741 1.91734e-20)
(30.0049 -0.139427 -2.61064e-20)
(30.0051 -0.140122 6.75956e-20)
(30.0052 -0.140825 -7.36547e-20)
(30.0054 -0.141535 8.18678e-20)
(30.0055 -0.142254 -6.97655e-20)
(30.0057 -0.142981 3.07989e-20)
(30.0059 -0.143715 2.4725e-20)
(30.006 -0.144458 -3.92096e-20)
(30.0062 -0.145208 1.7581e-20)
(30.0064 -0.145965 -2.40415e-20)
(30.0066 -0.146731 1.90614e-20)
(30.0068 -0.147504 1.61207e-20)
(30.0069 -0.148284 -9.97928e-21)
(30.0071 -0.149072 -6.15156e-21)
(30.0073 -0.149866 6.45976e-20)
(30.0075 -0.150668 -9.56507e-20)
(30.0077 -0.151477 6.17053e-20)
(30.0079 -0.152293 1.98236e-20)
(30.0081 -0.153116 -8.69945e-20)
(30.0084 -0.153945 2.74141e-20)
(30.0086 -0.15478 -2.41965e-20)
(30.0088 -0.155622 8.41036e-20)
(30.009 -0.15647 -6.86334e-20)
(30.0092 -0.157324 1.72221e-20)
(30.0095 -0.158183 -1.59163e-20)
(30.0097 -0.159048 8.344e-20)
(30.0099 -0.159918 -3.76008e-20)
(30.0102 -0.160794 3.94436e-20)
(30.0104 -0.161674 -9.30647e-20)
(30.0107 -0.162558 -4.01529e-20)
(30.0109 -0.163447 2.85018e-20)
(30.0112 -0.164341 3.17822e-20)
(30.0115 -0.165237 3.01014e-20)
(30.0117 -0.166138 2.22754e-20)
(30.012 -0.167041 -1.04241e-19)
(30.0123 -0.167948 5.96671e-20)
(30.0125 -0.168857 -3.35754e-20)
(30.0128 -0.169769 3.40169e-20)
(30.0131 -0.170682 3.60609e-20)
(30.0134 -0.171597 -8.93326e-20)
(30.0137 -0.172514 1.10232e-19)
(30.014 -0.173431 -3.36951e-20)
(30.0143 -0.174349 -3.50498e-20)
(30.0146 -0.175267 4.5754e-20)
(30.0149 -0.176184 -5.37036e-20)
(30.0152 -0.177102 -2.28324e-20)
(30.0155 -0.178018 2.22252e-20)
(30.0158 -0.178933 4.67487e-20)
(30.0161 -0.179846 -2.5425e-20)
(30.0164 -0.180756 1.37965e-20)
(30.0167 -0.181664 -1.99796e-20)
(30.017 -0.182569 1.32166e-21)
(30.0174 -0.183471 -4.26856e-20)
(30.0177 -0.184368 5.44509e-20)
(30.018 -0.185262 -1.76518e-20)
(30.0183 -0.18615 5.25489e-20)
(30.0186 -0.187033 -3.80847e-20)
(30.019 -0.18791 -2.39211e-20)
(30.0193 -0.188781 8.6756e-22)
(30.0196 -0.189645 -7.25886e-21)
(30.02 -0.190502 -1.22564e-20)
(30.0203 -0.191352 5.60993e-21)
(30.0206 -0.192193 -1.00583e-20)
(30.021 -0.193026 2.01478e-20)
(30.0213 -0.19385 3.45473e-20)
(30.0216 -0.194665 -1.90342e-20)
(30.0219 -0.19547 3.89079e-20)
(30.0223 -0.196264 -2.44782e-20)
(30.0226 -0.197048 1.23124e-20)
(30.0229 -0.19782 -2.38956e-20)
(30.0232 -0.19858 -2.11191e-21)
(30.0236 -0.199329 2.01193e-20)
(30.0239 -0.200065 -4.12687e-20)
(30.0242 -0.200787 3.35061e-20)
(30.0245 -0.201496 1.20544e-20)
(30.0248 -0.202191 -4.18177e-20)
(30.0251 -0.202871 3.24084e-20)
(30.0254 -0.203537 -1.37717e-20)
(30.0258 -0.204187 -1.05368e-20)
(30.0261 -0.20482 -8.14666e-21)
(30.0264 -0.205438 3.26935e-21)
(30.0267 -0.206038 -7.84241e-21)
(30.027 -0.20662 1.60893e-20)
(30.0273 -0.207185 -5.33477e-21)
(30.0275 -0.20773 1.66373e-20)
(30.0278 -0.208256 -2.22736e-20)
(30.0281 -0.208762 1.32553e-20)
(30.0284 -0.209247 1.27309e-20)
(30.0287 -0.209711 -1.93177e-20)
(30.029 -0.210153 8.63673e-21)
(30.0292 -0.210571 -9.9786e-22)
(30.0295 -0.210966 3.65781e-22)
(30.0298 -0.211337 -1.05046e-20)
(30.0301 -0.211683 2.65091e-20)
(30.0303 -0.212002 -2.22149e-20)
(30.0306 -0.212295 1.07572e-20)
(30.0308 -0.21256 1.43932e-21)
(30.0311 -0.212796 -3.83431e-22)
(30.0313 -0.213003 -8.39707e-22)
(30.0316 -0.21318 -7.45095e-21)
(30.0318 -0.213327 6.49338e-21)
(30.0321 -0.213442 2.02611e-21)
(30.0323 -0.213525 -6.01944e-21)
(30.0325 -0.213575 -6.62457e-23)
(30.0327 -0.213593 1.67535e-21)
(30.0329 -0.213578 2.72955e-21)
(30.0331 -0.21353 3.65098e-23)
(30.0333 -0.213449 -1.32481e-21)
(30.0335 -0.213336 1.33126e-22)
(30.0336 -0.213191 -1.05757e-22)
(30.0338 -0.213015 -1.17121e-21)
(30.0339 -0.21281 3.67771e-21)
(30.034 -0.212576 -1.60833e-21)
(30.0341 -0.212315 -3.30105e-22)
(30.0342 -0.21203 1.53711e-22)
(30.0343 -0.211723 1.43897e-22)
(30.0343 -0.211396 -1.21533e-22)
(30.0343 -0.211053 8.50469e-23)
(30.0343 -0.210697 1.16226e-22)
(30.0343 -0.210332 -3.60811e-22)
(30.0343 -0.20996 1.41129e-22)
(30.0342 -0.209587 -7.43935e-23)
(30.0341 -0.209216 1.03644e-22)
(30.0341 -0.208851 6.27492e-23)
(30.0339 -0.208497 -1.42848e-22)
(30.0338 -0.208158 1.11235e-22)
(30.0337 -0.207838 4.78173e-23)
(30.0335 -0.207535 -8.27369e-23)
(30.0334 -0.207287 1.45702e-23)
(30.0331 -0.206917 1.29913e-23)
(29.9938 -0.119615 2.40243e-20)
(29.9939 -0.120025 -3.31871e-20)
(29.994 -0.120447 -1.29459e-20)
(29.994 -0.120849 3.37283e-20)
(29.9941 -0.121275 -1.21776e-20)
(29.9942 -0.121712 1.21564e-20)
(29.9943 -0.122158 -3.19771e-20)
(29.9944 -0.122612 1.64618e-20)
(29.9945 -0.123072 2.85291e-20)
(29.9946 -0.12354 -4.80134e-20)
(29.9947 -0.124015 7.90226e-20)
(29.9948 -0.124498 -7.83799e-20)
(29.9949 -0.124989 4.62485e-20)
(29.995 -0.125487 -3.48299e-20)
(29.9952 -0.125993 3.67613e-22)
(29.9953 -0.126506 5.38658e-20)
(29.9954 -0.127028 -1.04113e-19)
(29.9955 -0.127557 5.5705e-20)
(29.9956 -0.128094 5.45119e-21)
(29.9958 -0.128639 -1.2355e-21)
(29.9959 -0.129192 -2.81543e-20)
(29.996 -0.129753 -1.44928e-20)
(29.9962 -0.130322 -2.90798e-20)
(29.9963 -0.130899 8.47004e-20)
(29.9964 -0.131484 -6.48407e-21)
(29.9966 -0.132078 3.2174e-20)
(29.9967 -0.132679 -5.01843e-20)
(29.9969 -0.133289 1.50767e-20)
(29.997 -0.133907 -3.18241e-20)
(29.9972 -0.134533 3.73296e-20)
(29.9973 -0.135168 3.75165e-20)
(29.9975 -0.135811 -5.17916e-20)
(29.9976 -0.136462 -2.53174e-20)
(29.9978 -0.137121 4.0165e-20)
(29.998 -0.137788 -8.00705e-20)
(29.9982 -0.138464 1.10352e-19)
(29.9983 -0.139148 -4.36424e-20)
(29.9985 -0.13984 4.17601e-20)
(29.9987 -0.140541 8.74252e-21)
(29.9989 -0.141249 -5.09992e-20)
(29.9991 -0.141966 7.76604e-21)
(29.9993 -0.14269 1.11352e-20)
(29.9995 -0.143423 -1.20988e-21)
(29.9997 -0.144164 -6.40763e-20)
(29.9999 -0.144912 6.85442e-20)
(30.0001 -0.145668 -1.29643e-20)
(30.0003 -0.146433 6.77458e-21)
(30.0006 -0.147204 1.42647e-20)
(30.0008 -0.147984 -3.36942e-20)
(30.001 -0.14877 4.56162e-20)
(30.0013 -0.149565 -3.37808e-20)
(30.0015 -0.150366 -1.05869e-20)
(30.0018 -0.151175 3.14183e-20)
(30.002 -0.15199 1.23778e-20)
(30.0023 -0.152813 -3.00167e-20)
(30.0025 -0.153642 -1.61485e-20)
(30.0028 -0.154477 -4.60064e-20)
(30.0031 -0.15532 3.14333e-20)
(30.0033 -0.156168 -5.14597e-20)
(30.0036 -0.157022 8.98009e-20)
(30.0039 -0.157882 6.99359e-21)
(30.0042 -0.158748 -1.10179e-19)
(30.0045 -0.159619 1.27675e-19)
(30.0048 -0.160496 -9.92998e-20)
(30.0051 -0.161377 1.38892e-20)
(30.0054 -0.162263 5.64274e-20)
(30.0057 -0.163154 -5.6803e-20)
(30.006 -0.164049 6.85635e-20)
(30.0064 -0.164947 -1.11888e-19)
(30.0067 -0.16585 5.95511e-20)
(30.007 -0.166755 5.01306e-20)
(30.0074 -0.167664 -5.2925e-20)
(30.0077 -0.168575 1.05823e-19)
(30.0081 -0.169489 -2.85701e-20)
(30.0084 -0.170405 1.95861e-20)
(30.0088 -0.171323 -1.12469e-19)
(30.0091 -0.172242 2.14558e-20)
(30.0095 -0.173161 -4.17586e-20)
(30.0099 -0.174082 8.6557e-20)
(30.0103 -0.175003 -9.5696e-20)
(30.0106 -0.175924 9.05648e-20)
(30.011 -0.176844 -4.22879e-20)
(30.0114 -0.177763 7.74863e-20)
(30.0118 -0.178681 -1.14643e-19)
(30.0122 -0.179597 8.61191e-20)
(30.0126 -0.180511 -4.13841e-21)
(30.013 -0.181423 -9.91044e-20)
(30.0134 -0.182331 1.4616e-19)
(30.0138 -0.183236 -7.81026e-20)
(30.0142 -0.184138 -1.61541e-20)
(30.0147 -0.185034 4.54242e-20)
(30.0151 -0.185926 -2.16063e-20)
(30.0155 -0.186813 -1.45038e-20)
(30.0159 -0.187694 5.63187e-20)
(30.0163 -0.188569 -6.31097e-20)
(30.0168 -0.189438 1.91131e-21)
(30.0172 -0.190299 -3.12072e-20)
(30.0176 -0.191154 6.27074e-20)
(30.018 -0.192 3.54268e-21)
(30.0185 -0.192838 -1.11391e-20)
(30.0189 -0.193667 -5.5201e-21)
(30.0193 -0.194486 -2.93436e-20)
(30.0197 -0.195297 7.47948e-21)
(30.0202 -0.196097 3.17199e-20)
(30.0206 -0.196886 -5.72416e-20)
(30.021 -0.197665 4.52654e-20)
(30.0214 -0.198432 1.55457e-20)
(30.0218 -0.199188 -2.56345e-20)
(30.0223 -0.199931 3.44326e-20)
(30.0227 -0.200662 -9.86691e-22)
(30.0231 -0.201379 -2.96634e-20)
(30.0235 -0.202083 1.99764e-20)
(30.0239 -0.202773 1.34789e-20)
(30.0243 -0.203449 -1.92893e-20)
(30.0247 -0.20411 4.44363e-21)
(30.0251 -0.204755 -9.04188e-21)
(30.0255 -0.205385 -5.50083e-21)
(30.0259 -0.205998 -2.681e-20)
(30.0263 -0.206595 5.17333e-20)
(30.0267 -0.207174 2.52162e-21)
(30.0271 -0.207736 -2.39364e-20)
(30.0275 -0.208279 4.33376e-21)
(30.0279 -0.208802 -2.0834e-20)
(30.0282 -0.209306 2.36477e-20)
(30.0286 -0.20979 1.96851e-20)
(30.029 -0.210253 -1.97481e-20)
(30.0293 -0.210693 1.61389e-20)
(30.0297 -0.211111 -5.71142e-21)
(30.0301 -0.211506 -1.98244e-20)
(30.0304 -0.211876 -5.43758e-21)
(30.0308 -0.212221 -9.85891e-22)
(30.0311 -0.212539 3.40808e-21)
(30.0315 -0.212831 1.94907e-20)
(30.0318 -0.213094 -2.18269e-20)
(30.0322 -0.213329 4.50662e-21)
(30.0325 -0.213533 -2.41026e-21)
(30.0328 -0.213707 5.6719e-21)
(30.0332 -0.213848 5.23178e-21)
(30.0335 -0.213958 -6.23564e-21)
(30.0338 -0.214034 4.82116e-21)
(30.0341 -0.214076 -5.55438e-21)
(30.0344 -0.214084 4.43021e-21)
(30.0347 -0.214057 -2.35925e-21)
(30.0349 -0.213995 -3.34139e-22)
(30.0352 -0.213899 -4.88959e-22)
(30.0354 -0.213768 4.55075e-22)
(30.0357 -0.213603 4.34784e-22)
(30.0359 -0.213405 -7.74109e-22)
(30.0361 -0.213176 1.62033e-21)
(30.0362 -0.212916 -2.7003e-23)
(30.0364 -0.212628 1.78129e-22)
(30.0365 -0.212314 -4.94386e-22)
(30.0366 -0.211977 9.52414e-23)
(30.0367 -0.211619 -1.30149e-22)
(30.0367 -0.211243 2.31026e-22)
(30.0368 -0.210854 -5.34094e-22)
(30.0367 -0.210456 -1.17318e-22)
(30.0367 -0.210052 3.26137e-22)
(30.0367 -0.209647 1.93175e-22)
(30.0366 -0.209246 1.89179e-22)
(30.0365 -0.208854 -1.84276e-23)
(30.0363 -0.208474 -1.11655e-22)
(30.0362 -0.208112 1.48543e-22)
(30.036 -0.207773 9.95781e-23)
(30.0358 -0.207454 6.40799e-23)
(30.0357 -0.207195 2.41859e-23)
(30.0353 -0.206816 1.99039e-23)
(29.988 -0.12092 -5.06522e-20)
(29.9881 -0.121318 -2.95092e-20)
(29.9882 -0.121727 6.71948e-20)
(29.9883 -0.122115 -3.46816e-20)
(29.9884 -0.122528 4.7515e-21)
(29.9885 -0.122952 7.78472e-21)
(29.9886 -0.123386 7.16385e-21)
(29.9887 -0.123826 2.98203e-20)
(29.9889 -0.124274 -7.90608e-20)
(29.989 -0.124729 2.15925e-20)
(29.9891 -0.125192 2.6892e-20)
(29.9892 -0.125662 5.51655e-21)
(29.9893 -0.12614 -5.34756e-21)
(29.9895 -0.126625 4.71767e-20)
(29.9896 -0.127118 -5.06637e-20)
(29.9897 -0.127619 1.3009e-20)
(29.9898 -0.128128 2.12236e-20)
(29.99 -0.128644 -4.13537e-20)
(29.9901 -0.129169 -2.56517e-20)
(29.9903 -0.129701 6.67804e-20)
(29.9904 -0.130241 -7.64554e-20)
(29.9906 -0.13079 6.90963e-20)
(29.9907 -0.131346 -1.56814e-20)
(29.9909 -0.131911 -5.87794e-21)
(29.991 -0.132484 -6.3305e-20)
(29.9912 -0.133065 3.55051e-21)
(29.9913 -0.133655 9.19802e-20)
(29.9915 -0.134252 -7.40334e-20)
(29.9917 -0.134858 -1.53671e-21)
(29.9919 -0.135473 3.0419e-20)
(29.992 -0.136096 3.77475e-20)
(29.9922 -0.136727 1.39589e-20)
(29.9924 -0.137366 -3.06045e-20)
(29.9926 -0.138014 -5.97339e-20)
(29.9928 -0.13867 5.15032e-20)
(29.993 -0.139335 2.06212e-20)
(29.9932 -0.140008 -2.99977e-20)
(29.9934 -0.140689 -5.60894e-20)
(29.9936 -0.141378 3.665e-20)
(29.9938 -0.142076 6.79766e-20)
(29.9941 -0.142782 -2.77358e-20)
(29.9943 -0.143497 3.93963e-20)
(29.9945 -0.144219 -1.24796e-19)
(29.9947 -0.14495 3.68359e-20)
(29.995 -0.145688 3.20641e-20)
(29.9952 -0.146435 -1.43248e-20)
(29.9955 -0.14719 -5.19746e-21)
(29.9957 -0.147952 3.12517e-20)
(29.996 -0.148722 -1.2784e-20)
(29.9963 -0.1495 -2.76064e-20)
(29.9965 -0.150285 3.4477e-20)
(29.9968 -0.151078 -1.29074e-20)
(29.9971 -0.151878 4.8931e-20)
(29.9974 -0.152685 -4.46355e-20)
(29.9977 -0.153499 -4.46087e-23)
(29.998 -0.15432 4.14109e-20)
(29.9983 -0.155148 2.22973e-20)
(29.9986 -0.155983 -4.40561e-20)
(29.9989 -0.156823 -5.17038e-20)
(29.9993 -0.15767 2.91073e-20)
(29.9996 -0.158523 4.30946e-20)
(29.9999 -0.159382 -4.13809e-20)
(30.0003 -0.160246 -4.47948e-20)
(30.0006 -0.161115 4.81626e-20)
(30.001 -0.16199 -3.70471e-20)
(30.0013 -0.162869 -1.44002e-20)
(30.0017 -0.163753 7.08693e-20)
(30.0021 -0.164641 -3.99711e-20)
(30.0025 -0.165533 -1.28468e-20)
(30.0028 -0.166429 -6.3241e-20)
(30.0032 -0.167328 1.06255e-19)
(30.0036 -0.168231 3.53523e-20)
(30.004 -0.169136 3.17056e-20)
(30.0044 -0.170044 1.63875e-20)
(30.0049 -0.170953 -1.52738e-19)
(30.0053 -0.171865 1.71181e-20)
(30.0057 -0.172778 1.39786e-20)