/*--------------------------------*- C++ -*----------------------------------*\
  =========                 |
  \\      /  F ield         | OpenFOAM: The Open Source CFD Toolbox
   \\    /   O peration     | Website:  https://openfoam.org
    \\  /    A nd           | Version:  13
     \\/     M anipulation  |
\*---------------------------------------------------------------------------*/
FoamFile
{
    format      ascii;
    class       volScalarField;
    location    "0.45";
    object      p;
}
// * * * * * * * * * * * * * * * * * * * * * * * * * * * * * * * * * * * * * //

dimensions      [0 2 -2 0 0 0 0];

internalField   nonuniform List<scalar> 
68864
(
0.371746
0.370291
0.368677
0.366877
0.365067
0.363293
0.361519
0.359725
0.357912
0.356089
0.354256
0.35241
0.35055
0.348678
0.346792
0.344893
0.342979
0.341052
0.33911
0.337152
0.33518
0.333192
0.331188
0.329167
0.32713
0.325075
0.323003
0.320913
0.318805
0.316678
0.314531
0.312365
0.31018
0.307973
0.305746
0.303497
0.301227
0.298934
0.296619
0.29428
0.291919
0.289533
0.287124
0.284689
0.28223
0.279745
0.277234
0.274697
0.272134
0.269545
0.266928
0.264284
0.261613
0.258914
0.256187
0.253432
0.250649
0.247838
0.244999
0.242132
0.239236
0.236313
0.233362
0.230383
0.227376
0.224343
0.221283
0.218196
0.215084
0.211946
0.208784
0.205597
0.202387
0.199155
0.195901
0.192627
0.189333
0.186019
0.182689
0.179342
0.17598
0.172606
0.169219
0.165821
0.162415
0.159001
0.155581
0.152158
0.148733
0.145307
0.141883
0.138463
0.13505
0.131646
0.128253
0.124872
0.121503
0.11815
0.114815
0.111503
0.108218
0.104962
0.101734
0.098534
0.0953627
0.0922238
0.0891226
0.0860642
0.0830512
0.0800837
0.0771604
0.0742812
0.0714478
0.0686638
0.0659333
0.0632591
0.0606423
0.0580829
0.0555811
0.0531378
0.0507544
0.0484321
0.0461715
0.0439724
0.0418349
0.03976
0.0377492
0.035804
0.033925
0.0321116
0.0303619
0.0286736
0.0270448
0.0254746
0.0239636
0.0225134
0.021126
0.0198019
0.0185398
0.0173353
0.016183
0.0150778
0.0140176
0.0130042
0.0120419
0.0111345
0.0102825
0.00948075
0.00872043
0.0079922
0.00729084
0.00661761
0.00597925
0.00538347
0.00483292
0.00432195
0.00383825
0.003368
0.0029028
0.00244504
0.00200745
0.00160579
0.00124895
0.000931005
0.00063506
0.000341833
7.28661e-05
0.636693
0.634991
0.632998
0.630788
0.628578
0.6264
0.624206
0.621971
0.619703
0.617411
0.615092
0.612745
0.610368
0.607961
0.605524
0.603055
0.600555
0.598022
0.595456
0.592856
0.590221
0.58755
0.584843
0.5821
0.579318
0.576498
0.573638
0.570738
0.567796
0.564813
0.561787
0.558717
0.555602
0.552442
0.549235
0.545981
0.542679
0.539328
0.535927
0.532476
0.528972
0.525416
0.521807
0.518143
0.514425
0.51065
0.506819
0.50293
0.498983
0.494978
0.490912
0.486787
0.4826
0.478353
0.474043
0.469671
0.465237
0.460739
0.456177
0.451552
0.446864
0.442111
0.437295
0.432415
0.427471
0.422464
0.417394
0.412261
0.407066
0.40181
0.396493
0.391117
0.385682
0.38019
0.374642
0.369039
0.363382
0.357673
0.351915
0.346109
0.340258
0.334365
0.32843
0.322455
0.316444
0.310399
0.304325
0.298225
0.292101
0.285957
0.279795
0.273618
0.267433
0.261242
0.255052
0.248864
0.242681
0.236505
0.230343
0.224201
0.218086
0.212004
0.205954
0.199939
0.193961
0.188025
0.182139
0.176312
0.17055
0.164854
0.159226
0.153665
0.148177
0.142766
0.137439
0.132203
0.12706
0.122012
0.117061
0.112209
0.107461
0.102817
0.0982816
0.0938545
0.089537
0.0853313
0.0812405
0.0772679
0.0734157
0.069684
0.0660707
0.0625733
0.0591893
0.0559178
0.0527599
0.049718
0.0467949
0.0439922
0.0413082
0.0387379
0.0362734
0.0339069
0.0316344
0.0294572
0.0273808
0.0254113
0.0235494
0.0217881
0.0201139
0.0185119
0.0169737
0.0155007
0.0141026
0.0127903
0.0115662
0.0104196
0.00932944
0.00827459
0.00724601
0.00625051
0.00530521
0.00442552
0.00361175
0.00285105
0.00211048
0.00140329
0.000579361
0.953082
0.950793
0.948125
0.945222
0.942316
0.939426
0.936493
0.933495
0.930444
0.927347
0.924201
0.921003
0.917752
0.914448
0.91109
0.907677
0.904208
0.900682
0.897097
0.893454
0.88975
0.885986
0.882158
0.878268
0.874313
0.870292
0.866204
0.862049
0.857824
0.85353
0.849163
0.844724
0.840212
0.835624
0.83096
0.826218
0.821398
0.816498
0.811517
0.806453
0.801306
0.796075
0.790757
0.785352
0.77986
0.774278
0.768605
0.762842
0.756986
0.751036
0.744993
0.738854
0.732619
0.726288
0.719859
0.713332
0.706706
0.699982
0.693157
0.686234
0.67921
0.672087
0.664863
0.65754
0.650117
0.642596
0.634975
0.627257
0.619442
0.611531
0.603525
0.595427
0.587236
0.578956
0.570587
0.56213
0.55359
0.544969
0.53627
0.527497
0.518652
0.509736
0.500754
0.491708
0.482604
0.473448
0.464245
0.454999
0.445713
0.43639
0.427036
0.417657
0.40826
0.398854
0.389445
0.380035
0.370629
0.361231
0.351851
0.342498
0.333181
0.323908
0.314682
0.305506
0.296385
0.287326
0.278342
0.269442
0.260635
0.251925
0.243315
0.234809
0.226411
0.218132
0.209979
0.20196
0.194079
0.186342
0.178751
0.171311
0.164028
0.156906
0.149947
0.143154
0.136529
0.130075
0.123797
0.117699
0.111784
0.106052
0.100501
0.0951287
0.0899332
0.084914
0.080072
0.0754094
0.0709283
0.0666292
0.0625098
0.0585637
0.0547822
0.0511568
0.0476829
0.0443618
0.0411983
0.0381964
0.0353537
0.0326592
0.0300959
0.0276483
0.0253094
0.0230833
0.0209805
0.0190074
0.017158
0.0154119
0.0137431
0.0121331
0.0105809
0.0091012
0.0077113
0.00641445
0.00519356
0.00401176
0.00284888
0.00162718
0.00060932
1.21791
1.21507
1.21186
1.20845
1.20504
1.20162
1.19814
1.19459
1.19098
1.18731
1.18357
1.17978
1.17592
1.17199
1.16799
1.16393
1.1598
1.15559
1.15131
1.14696
1.14253
1.13803
1.13344
1.12877
1.12403
1.11919
1.11428
1.10927
1.10418
1.09899
1.09372
1.08835
1.08288
1.07732
1.07166
1.06589
1.06003
1.05406
1.04798
1.0418
1.0355
1.0291
1.02258
1.01595
1.0092
1.00233
0.995348
0.988241
0.981011
0.973657
0.966177
0.958571
0.950836
0.942973
0.934978
0.926853
0.918595
0.910204
0.901679
0.89302
0.884225
0.875296
0.866231
0.857031
0.847696
0.838225
0.828619
0.81888
0.809009
0.799006
0.788873
0.77861
0.76822
0.757704
0.747065
0.736306
0.72543
0.71444
0.703339
0.69213
0.680817
0.669403
0.657893
0.646293
0.634608
0.622845
0.61101
0.599106
0.587138
0.575112
0.563035
0.550916
0.538765
0.52659
0.514398
0.502194
0.489983
0.477774
0.465577
0.453405
0.44127
0.429179
0.417138
0.405153
0.39323
0.381381
0.369619
0.357956
0.346404
0.334969
0.323656
0.312471
0.301422
0.290519
0.279774
0.269195
0.258791
0.248568
0.238532
0.228689
0.219045
0.209607
0.200378
0.191362
0.182563
0.173987
0.16564
0.157527
0.149652
0.142014
0.134612
0.127444
0.120509
0.113807
0.107339
0.101109
0.0951184
0.089368
0.0838538
0.0785678
0.0734994
0.0686398
0.063985
0.0595375
0.0553026
0.0512828
0.047472
0.0438547
0.0404106
0.0371236
0.0339886
0.0310121
0.0282046
0.025569
0.0230923
0.0207475
0.0185046
0.0163466
0.0142769
0.0123138
0.0104725
0.00874813
0.0071105
0.00551658
0.00393502
0.00234102
0.000847031
1.49019
1.48718
1.48376
1.48013
1.4765
1.47284
1.4691
1.46527
1.46135
1.45736
1.45329
1.44914
1.44489
1.44057
1.43615
1.43164
1.42704
1.42234
1.41754
1.41265
1.40766
1.40256
1.39736
1.39205
1.38664
1.38111
1.37547
1.36971
1.36384
1.35785
1.35174
1.3455
1.33914
1.33264
1.32602
1.31927
1.31238
1.30535
1.29818
1.29088
1.28343
1.27583
1.26808
1.26019
1.25214
1.24394
1.23558
1.22706
1.21839
1.20955
1.20055
1.19138
1.18205
1.17254
1.16287
1.15303
1.14301
1.13283
1.12246
1.11193
1.10121
1.09032
1.07926
1.06802
1.0566
1.04501
1.03325
1.02131
1.00919
0.996911
0.984457
0.971835
0.959047
0.946096
0.932986
0.91972
0.9063
0.89273
0.879014
0.865155
0.85116
0.837034
0.822783
0.808414
0.793932
0.779344
0.764656
0.749876
0.73501
0.720067
0.705056
0.689987
0.674871
0.659717
0.644534
0.629329
0.614111
0.598891
0.583681
0.568495
0.553349
0.538251
0.523211
0.508235
0.493334
0.47852
0.463809
0.449218
0.434759
0.420441
0.406273
0.39226
0.378415
0.364748
0.351274
0.338006
0.324953
0.312124
0.299526
0.287168
0.275056
0.263198
0.2516
0.240268
0.229208
0.218427
0.207932
0.197729
0.187822
0.17821
0.168894
0.159871
0.151142
0.142707
0.134569
0.126729
0.119191
0.111952
0.105009
0.0983513
0.0919694
0.0858543
0.0800022
0.074415
0.0690958
0.0640442
0.0592511
0.0546989
0.0503676
0.0462417
0.0423168
0.038598
0.0350915
0.0317942
0.0286878
0.0257427
0.0229309
0.0202392
0.0176731
0.015248
0.0129706
0.0108242
0.00876942
0.00676407
0.00477998
0.00281724
0.000967854
1.74893
1.74546
1.74154
1.73745
1.73335
1.72921
1.72497
1.72063
1.7162
1.71168
1.70707
1.70236
1.69755
1.69264
1.68762
1.68251
1.67728
1.67195
1.6665
1.66094
1.65527
1.64947
1.64355
1.63751
1.63134
1.62505
1.61862
1.61205
1.60535
1.59851
1.59153
1.5844
1.57713
1.5697
1.56212
1.55438
1.54648
1.53843
1.5302
1.52181
1.51325
1.50452
1.49561
1.48652
1.47725
1.4678
1.45816
1.44834
1.43832
1.42811
1.4177
1.4071
1.3963
1.38529
1.37408
1.36267
1.35104
1.33921
1.32718
1.31493
1.30247
1.28979
1.27691
1.26381
1.2505
1.23698
1.22325
1.2093
1.19515
1.18079
1.16622
1.15144
1.13647
1.1213
1.10593
1.09037
1.07462
1.05869
1.04258
1.02629
1.00984
0.993231
0.976465
0.959551
0.942495
0.925306
0.907992
0.890563
0.873029
0.855397
0.837678
0.819883
0.802024
0.784114
0.766162
0.74818
0.730177
0.712165
0.694159
0.676177
0.658233
0.640342
0.622514
0.604757
0.587083
0.569508
0.552051
0.53473
0.517562
0.500557
0.483723
0.467071
0.450612
0.434362
0.418338
0.402555
0.387026
0.37176
0.356764
0.342049
0.327623
0.313496
0.299677
0.286174
0.272994
0.260146
0.247636
0.235471
0.223655
0.212188
0.201072
0.190306
0.179892
0.16983
0.160122
0.150771
0.141776
0.133137
0.124849
0.116902
0.109286
0.101992
0.0950157
0.0883572
0.0820182
0.0759965
0.0702812
0.0648538
0.0596928
0.0547827
0.0501183
0.0457028
0.0415398
0.0376221
0.0339277
0.0304251
0.0270867
0.0239011
0.0208745
0.0180187
0.0153322
0.0127891
0.0103447
0.00795596
0.00560442
0.00328444
0.00114443
2.0008
1.99719
1.99309
1.98883
1.98456
1.98023
1.97579
1.97123
1.96656
1.9618
1.95692
1.95193
1.94683
1.9416
1.93626
1.9308
1.9252
1.91948
1.91363
1.90765
1.90152
1.89526
1.88885
1.8823
1.87559
1.86874
1.86172
1.85455
1.84722
1.83972
1.83205
1.82421
1.81619
1.80799
1.79961
1.79105
1.78229
1.77334
1.7642
1.75486
1.74531
1.73556
1.7256
1.71542
1.70503
1.69443
1.68359
1.67254
1.66125
1.64974
1.63799
1.62601
1.61378
1.60132
1.58861
1.57566
1.56246
1.54901
1.53531
1.52136
1.50716
1.4927
1.47799
1.46302
1.4478
1.43233
1.41661
1.40063
1.3844
1.36792
1.35119
1.33423
1.31702
1.29957
1.28189
1.26398
1.24584
1.22748
1.20891
1.19013
1.17115
1.15198
1.13262
1.11308
1.09338
1.07351
1.05349
1.03333
1.01305
0.992645
0.972135
0.951531
0.930848
0.9101
0.889301
0.868463
0.847596
0.826715
0.805838
0.784984
0.764172
0.743417
0.722732
0.702126
0.681614
0.661215
0.64095
0.620843
0.60091
0.581164
0.561614
0.542271
0.523151
0.504275
0.48566
0.467326
0.449284
0.431544
0.414117
0.397013
0.380245
0.363824
0.347761
0.332066
0.316747
0.301813
0.28727
0.273126
0.259385
0.246051
0.233125
0.220609
0.208503
0.196807
0.185523
0.174652
0.164196
0.154153
0.144518
0.135282
0.126433
0.11796
0.109858
0.102127
0.0947692
0.0877807
0.0811489
0.074852
0.0688663
0.0631749
0.0577729
0.052664
0.0478501
0.0433201
0.0390472
0.0349964
0.0311397
0.027468
0.0239885
0.0207099
0.0176229
0.0146917
0.0118671
0.00910595
0.00640263
0.00373897
0.00132809
2.25256
2.24856
2.24405
2.23939
2.23473
2.22999
2.22512
2.22013
2.21501
2.20978
2.20443
2.19896
2.19335
2.18761
2.18174
2.17572
2.16957
2.16327
2.15683
2.15023
2.14348
2.13657
2.1295
2.12226
2.11485
2.10728
2.09952
2.09159
2.08347
2.07516
2.06666
2.05797
2.04907
2.03998
2.03067
2.02116
2.01143
2.00148
1.99131
1.98091
1.97028
1.95941
1.94831
1.93696
1.92537
1.91353
1.90143
1.88908
1.87646
1.86359
1.85044
1.83702
1.82333
1.80937
1.79512
1.7806
1.76579
1.7507
1.73531
1.71964
1.70368
1.68743
1.67089
1.65405
1.63693
1.61951
1.6018
1.5838
1.56551
1.54693
1.52807
1.50893
1.48952
1.46983
1.44987
1.42964
1.40915
1.38841
1.36743
1.34621
1.32476
1.30308
1.28119
1.25908
1.23679
1.21431
1.19166
1.16885
1.1459
1.1228
1.09958
1.07625
1.05284
1.02934
1.00579
0.982194
0.958562
0.934913
0.911268
0.88765
0.86408
0.840573
0.817143
0.793802
0.770569
0.747464
0.724515
0.701745
0.679171
0.656807
0.634664
0.612757
0.591105
0.56973
0.548656
0.527898
0.507471
0.487386
0.467654
0.448289
0.429305
0.410718
0.392539
0.374777
0.357441
0.340539
0.324081
0.308075
0.292526
0.27744
0.262819
0.248662
0.234969
0.221742
0.208981
0.196689
0.184868
0.173517
0.16263
0.152193
0.142194
0.132621
0.12347
0.114743
0.106443
0.0985623
0.091084
0.0839817
0.0772298
0.070813
0.0647297
0.0589847
0.0535769
0.0484886
0.0436854
0.0391291
0.0347942
0.0306762
0.026785
0.0231246
0.0196751
0.0163894
0.0132152
0.0101118
0.00709002
0.00411376
0.00148304
2.49676
2.49255
2.4878
2.48291
2.47801
2.47303
2.4679
2.46263
2.45723
2.45171
2.44604
2.44024
2.43429
2.42819
2.42195
2.41554
2.40899
2.40226
2.39538
2.38832
2.38109
2.37368
2.36609
2.35831
2.35034
2.34218
2.33382
2.32525
2.31648
2.3075
2.2983
2.28887
2.27923
2.26935
2.25923
2.24888
2.23829
2.22744
2.21634
2.20498
2.19336
2.18148
2.16932
2.15688
2.14417
2.13117
2.11788
2.1043
2.09042
2.07624
2.06175
2.04696
2.03185
2.01643
2.00069
1.98464
1.96825
1.95154
1.93451
1.91714
1.89944
1.88141
1.86305
1.84436
1.82533
1.80597
1.78627
1.76624
1.74589
1.72521
1.70421
1.68288
1.66124
1.63929
1.61703
1.59446
1.57161
1.54846
1.52504
1.50135
1.47739
1.45318
1.42872
1.40402
1.37911
1.35399
1.32868
1.30319
1.27753
1.25171
1.22575
1.19968
1.1735
1.14724
1.12091
1.09453
1.06811
1.04167
1.01525
0.988854
0.962513
0.936244
0.910061
0.88398
0.858023
0.832216
0.806586
0.781157
0.755949
0.730975
0.706251
0.681795
0.657629
0.633778
0.610265
0.587106
0.564317
0.541911
0.519902
0.498306
0.477142
0.456422
0.43616
0.416364
0.397043
0.378208
0.35987
0.342039
0.324721
0.307922
0.291642
0.275879
0.260634
0.245908
0.231705
0.218028
0.20488
0.192257
0.180149
0.168541
0.157418
0.146773
0.136604
0.126915
0.117703
0.108959
0.100657
0.0927683
0.0852697
0.0781503
0.0714121
0.0650587
0.0590817
0.0534537
0.0481345
0.0430861
0.0382894
0.0337467
0.0294675
0.0254465
0.02165
0.0180211
0.014509
0.0110789
0.00776166
0.00449167
0.00166226
2.74443
2.73987
2.73473
2.72947
2.7242
2.71884
2.71331
2.70762
2.7018
2.69583
2.68971
2.68344
2.677
2.67041
2.66365
2.65671
2.6496
2.64232
2.63485
2.62719
2.61933
2.61129
2.60304
2.59458
2.58591
2.57703
2.56792
2.55859
2.54903
2.53923
2.5292
2.51891
2.50838
2.49759
2.48653
2.47521
2.46362
2.45175
2.4396
2.42716
2.41443
2.4014
2.38807
2.37442
2.36047
2.3462
2.3316
2.31668
2.30143
2.28583
2.2699
2.25363
2.237
2.22003
2.20269
2.185
2.16695
2.14853
2.12975
2.1106
2.09108
2.07118
2.05092
2.03029
2.00928
1.98789
1.96614
1.94402
1.92153
1.89868
1.87547
1.85191
1.82798
1.80371
1.7791
1.75416
1.72888
1.7033
1.6774
1.65119
1.6247
1.59792
1.57088
1.54358
1.51603
1.48827
1.46028
1.4321
1.40374
1.3752
1.34652
1.31771
1.28879
1.25978
1.23071
1.20157
1.17241
1.14323
1.11407
1.08494
1.05589
1.02691
0.998038
0.969285
0.940677
0.912242
0.88401
0.856003
0.828243
0.800748
0.773535
0.746625
0.720044
0.693816
0.667964
0.642506
0.617458
0.592837
0.56866
0.544945
0.521709
0.498968
0.47673
0.455007
0.43381
0.413151
0.393044
0.373498
0.35452
0.336113
0.318275
0.301005
0.284305
0.26818
0.252633
0.237669
0.223287
0.209479
0.196233
0.183532
0.171366
0.159729
0.148622
0.138047
0.127995
0.118449
0.109382
0.100765
0.0925784
0.0848177
0.0774847
0.0705771
0.0640771
0.0579492
0.052151
0.0466502
0.0414359
0.0365138
0.0318878
0.0275393
0.0234214
0.0194719
0.0156487
0.0119256
0.00835147
0.00482003
0.00182029
2.98742
2.98258
2.97712
2.97155
2.96599
2.96031
2.95444
2.94841
2.94223
2.93589
2.92938
2.9227
2.91585
2.90882
2.90161
2.89421
2.88662
2.87883
2.87084
2.86264
2.85423
2.8456
2.83675
2.82768
2.81836
2.80882
2.79902
2.78898
2.77868
2.76812
2.7573
2.7462
2.73482
2.72316
2.71121
2.69897
2.68642
2.67357
2.6604
2.64691
2.6331
2.61895
2.60447
2.58965
2.57448
2.55895
2.54307
2.52682
2.5102
2.49321
2.47584
2.45809
2.43995
2.42142
2.40249
2.38317
2.36344
2.3433
2.32276
2.30181
2.28046
2.25868
2.2365
2.2139
2.19089
2.16746
2.14363
2.11938
2.09474
2.06969
2.04424
2.01839
1.99215
1.96554
1.93854
1.91118
1.88346
1.85539
1.82698
1.79824
1.76917
1.7398
1.71014
1.6802
1.65
1.61956
1.58888
1.55798
1.52689
1.49563
1.4642
1.43265
1.40098
1.36921
1.33738
1.30549
1.27358
1.24167
1.20978
1.17794
1.14618
1.11452
1.08298
1.05158
1.02035
0.989319
0.958518
0.927971
0.897701
0.867729
0.838077
0.808766
0.779824
0.751274
0.723139
0.69544
0.668196
0.641426
0.615148
0.589382
0.564143
0.539446
0.5153
0.491719
0.468716
0.446306
0.424502
0.403314
0.382744
0.362794
0.343462
0.324751
0.306665
0.289208
0.272385
0.256197
0.240639
0.2257
0.211368
0.19763
0.184477
0.171905
0.159914
0.148499
0.137649
0.12734
0.117546
0.108242
0.0994122
0.0910532
0.0831636
0.0757331
0.0687357
0.0621319
0.0558821
0.0499611
0.0443636
0.0390938
0.0341456
0.0294862
0.0250603
0.0208078
0.0166991
0.0127131
0.00891382
0.00514086
0.00197902
3.23462
3.22942
3.22354
3.21759
3.21164
3.20555
3.19926
3.19279
3.18616
3.17935
3.17237
3.16519
3.15783
3.15027
3.14251
3.13455
3.12637
3.11798
3.10937
3.10053
3.09145
3.08214
3.07259
3.06279
3.05273
3.0424
3.03181
3.02095
3.00981
2.99837
2.98665
2.97463
2.9623
2.94965
2.93669
2.92341
2.90979
2.89583
2.88153
2.86687
2.85186
2.83649
2.82074
2.80461
2.78811
2.77121
2.75392
2.73623
2.71813
2.69962
2.68069
2.66134
2.64156
2.62136
2.60072
2.57964
2.55811
2.53615
2.51373
2.49087
2.46756
2.44379
2.41957
2.3949
2.36977
2.34419
2.31817
2.2917
2.26479
2.23743
2.20964
2.18142
2.15277
2.12372
2.09425
2.06439
2.03414
2.0035
1.9725
1.94114
1.90944
1.87742
1.84508
1.81245
1.77954
1.74636
1.71294
1.6793
1.64546
1.61143
1.57724
1.54292
1.50848
1.47396
1.43937
1.40474
1.37009
1.33546
1.30086
1.26633
1.2319
1.19759
1.16342
1.12943
1.09563
1.06206
1.02875
0.995732
0.963024
0.930654
0.898642
0.867014
0.835794
0.805008
0.774681
0.744835
0.715493
0.686675
0.658398
0.630682
0.603541
0.576988
0.551037
0.525703
0.501001
0.476948
0.453553
0.430822
0.408759
0.387363
0.366637
0.346584
0.32721
0.308518
0.290511
0.273185
0.256534
0.240546
0.225211
0.210517
0.196457
0.183027
0.170221
0.158031
0.146442
0.13543
0.12497
0.11504
0.105625
0.0967214
0.0883212
0.0804082
0.0729514
0.0659112
0.0592522
0.0529545
0.0470143
0.0414304
0.0361854
0.0312366
0.0265254
0.0219981
0.0176378
0.013424
0.00942919
0.00542903
0.00212283
3.48014
3.47458
3.46831
3.46198
3.45566
3.44918
3.44249
3.43559
3.42852
3.42126
3.4138
3.40615
3.39828
3.3902
3.3819
3.37338
3.36463
3.35565
3.34642
3.33694
3.32721
3.31722
3.30697
3.29644
3.28563
3.27454
3.26315
3.25146
3.23946
3.22715
3.21452
3.20157
3.18827
3.17464
3.16065
3.14631
3.1316
3.11653
3.10107
3.08523
3.069
3.05236
3.03532
3.01787
2.99999
2.98169
2.96296
2.94379
2.92417
2.9041
2.88357
2.86258
2.84113
2.8192
2.79679
2.77391
2.75054
2.72669
2.70235
2.67751
2.65219
2.62637
2.60005
2.57324
2.54594
2.51815
2.48988
2.46112
2.43187
2.40215
2.37196
2.3413
2.31019
2.27863
2.24663
2.21421
2.18136
2.14811
2.11446
2.08044
2.04606
2.01133
1.97627
1.9409
1.90523
1.86929
1.83311
1.79669
1.76006
1.72326
1.68629
1.64918
1.61197
1.57468
1.53734
1.49997
1.4626
1.42525
1.38797
1.35077
1.31369
1.27677
1.24002
1.20347
1.16715
1.13109
1.09532
1.05988
1.0248
0.990099
0.955797
0.921921
0.888495
0.855548
0.823108
0.791201
0.759847
0.729067
0.698878
0.669297
0.640338
0.612018
0.584354
0.55736
0.531054
0.505447
0.480548
0.456361
0.432888
0.410133
0.3881
0.366793
0.346216
0.32637
0.307253
0.288862
0.271188
0.254224
0.237958
0.22238
0.20748
0.193252
0.179687
0.166776
0.154502
0.142842
0.13177
0.121264
0.111312
0.101904
0.0930301
0.0846699
0.0767898
0.0693507
0.0623202
0.0556812
0.0494287
0.0435553
0.0380345
0.0328166
0.0278443
0.0230714
0.0184906
0.0140754
0.00990526
0.00568533
0.00225858
3.73
3.72404
3.71731
3.71054
3.70378
3.69685
3.68968
3.6823
3.67472
3.66694
3.65895
3.65073
3.64229
3.63362
3.62471
3.61556
3.60615
3.59649
3.58657
3.57638
3.56591
3.55515
3.54411
3.53277
3.52112
3.50916
3.49688
3.48427
3.47133
3.45805
3.44441
3.43042
3.41606
3.40133
3.38621
3.37071
3.35481
3.3385
3.32178
3.30464
3.28707
3.26907
3.25062
3.23172
3.21236
3.19253
3.17223
3.15145
3.13019
3.10844
3.08618
3.06343
3.04016
3.01638
2.99209
2.96727
2.94193
2.91606
2.88966
2.86272
2.83525
2.80725
2.77871
2.74964
2.72004
2.68991
2.65926
2.62808
2.59638
2.56417
2.53146
2.49825
2.46455
2.43038
2.39575
2.36065
2.32511
2.28914
2.25276
2.21598
2.17883
2.14131
2.10345
2.06527
2.02679
1.98802
1.94901
1.90977
1.87032
1.83069
1.7909
1.75099
1.71099
1.67092
1.63082
1.59071
1.55061
1.51056
1.4706
1.43076
1.39107
1.35157
1.31227
1.27321
1.23441
1.19592
1.15776
1.11997
1.08259
1.04563
1.00912
0.97307
0.937523
0.902506
0.868048
0.834175
0.800908
0.768264
0.73626
0.704912
0.674239
0.644257
0.614986
0.58644
0.558632
0.531573
0.505268
0.479722
0.454941
0.430928
0.407688
0.385224
0.363537
0.342624
0.322484
0.303111
0.2845
0.266642
0.249527
0.233141
0.217473
0.202513
0.188254
0.174685
0.161788
0.14954
0.137914
0.126886
0.116443
0.106575
0.09727
0.0885048
0.0802431
0.0724452
0.0650803
0.0581331
0.0515976
0.0454606
0.0396883
0.0342268
0.0290212
0.0240315
0.0192574
0.0146637
0.0103345
0.00590316
0.00238651
3.98051
3.97412
3.96692
3.9597
3.9525
3.9451
3.93744
3.92955
3.92145
3.91313
3.90458
3.89579
3.88676
3.87747
3.86793
3.85812
3.84804
3.83768
3.82703
3.8161
3.80486
3.79331
3.78144
3.76926
3.75674
3.74388
3.73067
3.7171
3.70318
3.68887
3.67419
3.65912
3.64364
3.62777
3.61147
3.59475
3.5776
3.56001
3.54196
3.52346
3.50449
3.48505
3.46513
3.44471
3.42379
3.40237
3.38043
3.35798
3.33499
3.31148
3.28742
3.26281
3.23765
3.21194
3.18566
3.15882
3.13142
3.10344
3.07488
3.04576
3.01605
2.98577
2.95491
2.92349
2.89149
2.85893
2.8258
2.79211
2.75786
2.72307
2.68775
2.6519
2.61554
2.57867
2.5413
2.50345
2.46514
2.42638
2.38719
2.34759
2.3076
2.26723
2.22651
2.18547
2.14411
2.10249
2.06061
2.0185
1.9762
1.93372
1.8911
1.84837
1.80557
1.76272
1.71986
1.67701
1.6342
1.59147
1.54886
1.50641
1.46415
1.42211
1.38031
1.33879
1.29757
1.2567
1.21622
1.17616
1.13655
1.09741
1.05876
1.02062
0.983044
0.946049
0.909669
0.873927
0.838841
0.804428
0.770705
0.73769
0.705403
0.673864
0.643088
0.61309
0.583878
0.555462
0.527848
0.501041
0.475049
0.449875
0.425523
0.401992
0.379279
0.357383
0.3363
0.316028
0.296562
0.27789
0.26
0.242875
0.226502
0.210873
0.195982
0.181817
0.168358
0.155578
0.143447
0.131943
0.121053
0.110769
0.101076
0.0919471
0.0833418
0.0752195
0.0675517
0.0603259
0.0535353
0.0471615
0.0411634
0.0354832
0.0300689
0.0248874
0.0199431
0.015189
0.0107157
0.00608482
0.0025082
4.23549
4.22863
4.2209
4.21318
4.20548
4.19756
4.18936
4.1809
4.17223
4.16331
4.15414
4.14472
4.13502
4.12506
4.11481
4.10428
4.09345
4.08232
4.07088
4.05912
4.04704
4.03461
4.02185
4.00873
3.99526
3.98141
3.96719
3.95257
3.93757
3.92215
3.90632
3.89007
3.87339
3.85626
3.83868
3.82064
3.80213
3.78314
3.76366
3.74368
3.7232
3.7022
3.68068
3.65862
3.63603
3.61288
3.58918
3.56491
3.54008
3.51466
3.48866
3.46207
3.43488
3.40709
3.3787
3.3497
3.32009
3.28986
3.25901
3.22754
3.19546
3.16276
3.12945
3.09553
3.061
3.02585
2.99011
2.95377
2.91685
2.87935
2.84129
2.80267
2.76351
2.72382
2.68361
2.6429
2.6017
2.56005
2.51795
2.47543
2.4325
2.3892
2.34554
2.30155
2.25726
2.21271
2.1679
2.12288
2.07767
2.03231
1.98683
1.94126
1.89564
1.85
1.80437
1.75878
1.71328
1.66789
1.62266
1.57763
1.53282
1.48828
1.44403
1.40009
1.35651
1.31334
1.27061
1.22835
1.18658
1.14534
1.10463
1.06451
1.02499
0.986113
0.947908
0.910394
0.873587
0.837504
0.802165
0.767589
0.733798
0.700808
0.668633
0.637284
0.606769
0.577097
0.548275
0.52031
0.493209
0.466974
0.441603
0.417094
0.393444
0.37065
0.348713
0.327628
0.307389
0.287981
0.269387
0.251591
0.234581
0.218351
0.202893
0.188195
0.174231
0.16097
0.148382
0.136449
0.125159
0.114505
0.104468
0.0950145
0.0860999
0.0776844
0.0697442
0.0622703
0.0552547
0.0486715
0.0424718
0.036595
0.0309943
0.0256428
0.0205492
0.0156536
0.0110514
0.00623477
0.00262381
4.49277
4.48542
4.47713
4.46888
4.46065
4.45219
4.44341
4.43436
4.42507
4.41553
4.40571
4.3956
4.38521
4.37453
4.36354
4.35224
4.34062
4.32868
4.31639
4.30377
4.29078
4.27744
4.26372
4.24962
4.23513
4.22023
4.20493
4.18921
4.17306
4.15646
4.13942
4.12192
4.10395
4.0855
4.06656
4.04711
4.02716
4.00669
3.98569
3.96415
3.94206
3.91942
3.8962
3.87241
3.84803
3.82306
3.79749
3.77131
3.74451
3.71709
3.68904
3.66034
3.63101
3.60104
3.57041
3.53913
3.50719
3.47459
3.44133
3.4074
3.37282
3.33759
3.3017
3.26515
3.22796
3.19012
3.15165
3.11255
3.07283
3.03251
2.99159
2.9501
2.90803
2.86541
2.82225
2.77858
2.73441
2.68977
2.64468
2.59915
2.55322
2.50691
2.46025
2.41326
2.36599
2.31845
2.27068
2.22271
2.17457
2.1263
2.07793
2.02951
1.98107
1.93264
1.88426
1.83595
1.78777
1.73975
1.69193
1.64436
1.59706
1.55007
1.50341
1.45713
1.41127
1.36586
1.32095
1.27657
1.23273
1.18947
1.14681
1.10478
1.06343
1.02277
0.982839
0.943652
0.905225
0.867577
0.830728
0.794701
0.759512
0.725176
0.691705
0.659106
0.627388
0.596563
0.566637
0.537617
0.509505
0.482301
0.456001
0.430602
0.406101
0.382497
0.359791
0.337977
0.317042
0.29697
0.277741
0.259341
0.24176
0.224994
0.209034
0.19386
0.179443
0.165749
0.152752
0.140437
0.128795
0.117815
0.107473
0.0977284
0.0885346
0.0798558
0.0716744
0.0639844
0.0567731
0.0500054
0.0436245
0.0375701
0.0318028
0.0263035
0.021082
0.016062
0.0113454
0.00635609
0.00273301
4.75471
4.74681
4.73792
4.72909
4.72029
4.71122
4.70182
4.69212
4.68216
4.67193
4.6614
4.65056
4.63941
4.62794
4.61615
4.60402
4.59154
4.5787
4.56551
4.55193
4.53798
4.52363
4.50887
4.4937
4.47811
4.46209
4.44562
4.42869
4.4113
4.39343
4.37507
4.35622
4.33686
4.31697
4.29656
4.2756
4.2541
4.23203
4.20939
4.18616
4.16234
4.13792
4.11288
4.08723
4.06094
4.03401
4.00643
3.97819
3.94929
3.91972
3.88946
3.85853
3.82691
3.79459
3.76158
3.72786
3.69344
3.65832
3.62249
3.58596
3.54873
3.5108
3.47218
3.43286
3.39286
3.35217
3.31082
3.26882
3.22617
3.18288
3.13898
3.09446
3.04936
3.00369
2.95747
2.91072
2.86347
2.81573
2.76754
2.71891
2.66989
2.62048
2.57074
2.52069
2.47036
2.41978
2.36899
2.31803
2.26693
2.21572
2.16446
2.11317
2.0619
2.01067
1.95954
1.90853
1.8577
1.80708
1.75671
1.70663
1.65688
1.60749
1.5585
1.50994
1.46186
1.4143
1.36729
1.32086
1.27504
1.22985
1.18533
1.1415
1.09841
1.05607
1.01451
0.973753
0.933811
0.894706
0.856459
0.819087
0.782607
0.747029
0.712362
0.678616
0.645801
0.613926
0.582999
0.553023
0.523995
0.495914
0.468774
0.442572
0.417309
0.392983
0.369592
0.347126
0.325569
0.304902
0.285106
0.26617
0.248086
0.230849
0.214444
0.198847
0.184025
0.169947
0.156588
0.143939
0.13199
0.120726
0.110113
0.100107
0.0906632
0.0817523
0.0733627
0.0654879
0.0581072
0.0511749
0.0446295
0.0384148
0.032502
0.0268773
0.0215486
0.01642
0.0116007
0.00644918
0.0028362
5.0201
5.01163
5.00209
4.99264
4.98323
4.97353
4.96345
4.95306
4.9424
4.93143
4.92014
4.90852
4.89656
4.88426
4.87161
4.85859
4.84519
4.83141
4.81724
4.80266
4.78766
4.77224
4.75638
4.74008
4.72331
4.70608
4.68836
4.67015
4.65143
4.6322
4.61245
4.59215
4.5713
4.54989
4.52791
4.50534
4.48218
4.45841
4.43401
4.40899
4.38333
4.35702
4.33004
4.3024
4.27407
4.24506
4.21534
4.18492
4.15378
4.12193
4.08934
4.05603
4.02198
3.98718
3.95164
3.91535
3.87831
3.84052
3.80198
3.7627
3.72267
3.68191
3.64041
3.59817
3.55522
3.51156
3.4672
3.42215
3.37643
3.33005
3.28303
3.23538
3.18712
3.13829
3.08889
3.03896
2.98852
2.9376
2.88622
2.83441
2.78221
2.72965
2.67676
2.62358
2.57014
2.51648
2.46264
2.40866
2.35457
2.30042
2.24624
2.19209
2.13799
2.08399
2.03013
1.97645
1.923
1.86981
1.81694
1.76441
1.71227
1.66055
1.60929
1.55853
1.50832
1.45868
1.40965
1.36126
1.31355
1.26654
1.22025
1.17473
1.13
1.08608
1.043
1.00078
0.959435
0.918983
0.879446
0.840838
0.80317
0.766453
0.730695
0.695907
0.662099
0.629278
0.59745
0.566611
0.536759
0.507889
0.479997
0.453082
0.427144
0.40218
0.378183
0.355138
0.333029
0.311834
0.291539
0.272134
0.253611
0.235962
0.219166
0.203195
0.188016
0.173599
0.159927
0.14699
0.134776
0.123262
0.112409
0.10217
0.0925065
0.0833961
0.0748305
0.0667988
0.0592697
0.0521887
0.0454938
0.0391378
0.0331019
0.027375
0.021957
0.0167312
0.011818
0.00651356
0.00293493
5.29036
5.28126
5.27102
5.26091
5.25084
5.24045
5.22965
5.21852
5.20708
5.19533
5.18322
5.17075
5.15793
5.14473
5.13114
5.11716
5.10278
5.08798
5.07275
5.05709
5.04097
5.0244
5.00735
4.98982
4.97179
4.95325
4.93419
4.9146
4.89446
4.87376
4.8525
4.83065
4.80821
4.78516
4.76148
4.73718
4.71224
4.68663
4.66036
4.63341
4.60577
4.57743
4.54837
4.5186
4.48809
4.45684
4.42484
4.39208
4.35856
4.32426
4.28919
4.25334
4.21669
4.17925
4.14102
4.10199
4.06216
4.02155
3.98014
3.93794
3.89496
3.85119
3.80665
3.76134
3.71528
3.66848
3.62096
3.57272
3.52378
3.47417
3.42388
3.37296
3.32143
3.26931
3.21662
3.16339
3.10965
3.05543
3.00077
2.94569
2.89024
2.83444
2.77834
2.72197
2.66537
2.60859
2.55166
2.49463
2.43753
2.38042
2.32332
2.26629
2.20938
2.15262
2.09607
2.03975
1.98372
1.92801
1.87267
1.81775
1.76328
1.70931
1.65586
1.60298
1.5507
1.49907
1.44811
1.39787
1.34836
1.29963
1.25169
1.20457
1.1583
1.11291
1.06842
1.02484
0.9822
0.940512
0.899792
0.860051
0.821299
0.783546
0.746802
0.711076
0.676378
0.642712
0.610076
0.578467
0.547879
0.518309
0.489754
0.462213
0.435683
0.410159
0.385629
0.362076
0.339481
0.317826
0.297098
0.277288
0.258386
0.240379
0.223242
0.206944
0.191454
0.176747
0.162807
0.149624
0.137181
0.125448
0.114383
0.10394
0.0940882
0.0848105
0.0760984
0.0679323
0.0602709
0.0530548
0.0462269
0.0397505
0.0336152
0.0278059
0.022312
0.0169965
0.0119967
0.00655004
0.00303114
5.56484
5.55508
5.5441
5.53328
5.5225
5.51138
5.49981
5.48789
5.47564
5.46304
5.45006
5.4367
5.42294
5.40878
5.39421
5.37921
5.36377
5.34788
5.33153
5.31471
5.2974
5.27959
5.26127
5.24243
5.22305
5.20312
5.18262
5.16155
5.1399
5.11764
5.09476
5.07125
5.0471
5.0223
4.99683
4.97067
4.94382
4.91627
4.88799
4.85898
4.82923
4.79873
4.76746
4.73541
4.70258
4.66895
4.63451
4.59927
4.56321
4.52632
4.4886
4.45005
4.41065
4.37041
4.32932
4.2874
4.24463
4.20102
4.15658
4.1113
4.06519
4.01827
3.97053
3.922
3.87268
3.8226
3.77176
3.72019
3.66789
3.6149
3.56123
3.50691
3.45197
3.39644
3.34035
3.28372
3.22658
3.16898
3.11095
3.05253
2.99375
2.93465
2.87528
2.81567
2.75588
2.69594
2.6359
2.5758
2.51568
2.4556
2.39559
2.33571
2.27601
2.21653
2.15731
2.09839
2.03982
1.98165