/*--------------------------------*- C++ -*----------------------------------*\
  =========                 |
  \\      /  F ield         | OpenFOAM: The Open Source CFD Toolbox
   \\    /   O peration     | Website:  https://openfoam.org
    \\  /    A nd           | Version:  13
     \\/     M anipulation  |
\*---------------------------------------------------------------------------*/
FoamFile
{
    format      ascii;
    class       surfaceScalarField;
    location    "0.45";
    object      phi;
}
// * * * * * * * * * * * * * * * * * * * * * * * * * * * * * * * * * * * * * //

dimensions      [0 3 -1 0 0 0 0];

internalField   nonuniform List<scalar> 
137229
(
14.3657
-0.000429403
-14.3685
14.3628
-0.000438742
14.3599
-0.00044842
14.357
-0.000458313
14.354
-0.000468491
14.3509
-0.000478988
14.3477
-0.000489746
14.3445
-0.00050086
14.3413
-0.000512273
14.3379
-0.000524022
14.3345
-0.000536084
14.3311
-0.000548556
14.3276
-0.000561326
14.324
-0.000574491
14.3203
-0.000588059
14.3166
-0.000601953
14.3128
-0.000616302
14.3089
-0.000631063
14.3049
-0.000646219
14.3009
-0.000661846
14.2967
-0.000677897
14.2925
-0.000694419
14.2883
-0.000711427
14.2839
-0.000728908
14.2794
-0.000746883
14.2749
-0.000765371
14.2703
-0.000784396
14.2655
-0.000803951
14.2607
-0.00082406
14.2558
-0.000844748
14.2508
-0.00086598
14.2457
-0.000887872
14.2405
-0.000910329
14.2351
-0.000933383
14.2297
-0.000957152
14.2242
-0.000981489
14.2185
-0.00100655
14.2128
-0.0010323
14.2069
-0.00105868
14.2009
-0.00108584
14.1948
-0.00111368
14.1886
-0.0011423
14.1822
-0.00117169
14.1758
-0.00120177
14.1692
-0.00123273
14.1624
-0.00126441
14.1555
-0.00129693
14.1485
-0.00133028
14.1414
-0.00136451
14.1341
-0.00139953
14.1266
-0.00143546
14.119
-0.00147224
14.1113
-0.00150992
14.1033
-0.00154849
14.0953
-0.00158798
14.087
-0.00162841
14.0786
-0.00166975
14.0701
-0.00171206
14.0613
-0.00175527
14.0524
-0.00179943
14.0433
-0.00184457
14.034
-0.00189062
14.0246
-0.00193773
14.0149
-0.00198574
14.005
-0.00203475
13.995
-0.00208474
13.9847
-0.00213565
13.9742
-0.00218752
13.9635
-0.00224035
13.9526
-0.0022941
13.9415
-0.00234879
13.9301
-0.00240437
13.9186
-0.00246088
13.9067
-0.00251834
13.8947
-0.00257664
13.8823
-0.00263578
13.8698
-0.00269575
13.8569
-0.00275639
13.8439
-0.00281779
13.8305
-0.00287994
13.8169
-0.00294283
13.803
-0.00300643
13.7888
-0.00307066
13.7743
-0.00313535
13.7595
-0.00320048
13.7444
-0.00326595
13.729
-0.00333186
13.7133
-0.00339817
13.6972
-0.00346487
13.6809
-0.00353164
13.6641
-0.00359838
13.6471
-0.00366497
13.6297
-0.00373143
13.6119
-0.003798
13.5938
-0.00386455
13.5752
-0.00393088
13.5563
-0.00399651
13.5371
-0.00406108
13.5174
-0.00412441
13.4973
-0.00418687
13.4767
-0.00424887
13.4558
-0.00431052
13.4344
-0.00437144
13.4126
-0.00443079
13.3903
-0.00448768
13.3676
-0.00454186
13.3443
-0.00459363
13.3206
-0.00464381
13.2964
-0.00469289
13.2717
-0.00474055
13.2465
-0.00478589
13.2207
-0.00482774
13.1944
-0.00486537
13.1676
-0.0048989
13.1402
-0.00492888
13.1122
-0.00495593
13.0836
-0.00497995
13.0544
-0.0050004
13.0246
-0.00501647
12.9942
-0.00502748
12.9631
-0.00503319
12.9314
-0.0050337
12.899
-0.00502889
12.8659
-0.00501848
12.8321
-0.00500191
12.7976
-0.00497884
12.7624
-0.00494914
12.7264
-0.004913
12.6897
-0.00487061
12.6522
-0.00482167
12.6138
-0.0047655
12.5747
-0.00470095
12.5347
-0.00462704
12.4939
-0.00454326
12.4522
-0.0044495
12.4096
-0.00434635
12.366
-0.00423456
12.3216
-0.00411479
12.2762
-0.00398675
12.2298
-0.0038492
12.1824
-0.00369996
12.134
-0.00353668
12.0846
-0.00335801
12.0341
-0.00316459
11.9825
-0.00295891
11.9298
-0.00274387
11.8759
-0.00252083
11.8209
-0.00228809
11.7647
-0.00204111
11.7073
-0.00177448
11.6486
-0.00148517
11.5886
-0.00117455
11.5274
-0.000848131
11.4648
-0.000512253
11.4008
-0.000169595
11.3355
0.000183747
11.2687
0.000557108
11.2004
0.000960397
11.1307
0.00139698
11.0594
0.00186097
10.9866
0.00233943
10.9122
0.00282158
10.8361
0.00330754
10.7584
0.00381095
10.679
0.00435159
10.5978
0.00494734
0.00558561
13.6793
0.00212891
-13.6819
13.6767
0.00216987
13.674
0.00221161
13.6713
0.00225416
13.6686
0.0022975
13.6657
0.00234165
13.6629
0.00238662
13.6599
0.00243244
13.6569
0.00247913
13.6539
0.00252665
13.6508
0.00257508
13.6476
0.00262443
13.6444
0.0026747
13.6411
0.00272587
13.6377
0.00277802
13.6343
0.00283115
13.6308
0.00288528
13.6272
0.00294039
13.6236
0.00299656
13.6198
0.00305378
13.6161
0.00311204
13.6122
0.00317139
13.6082
0.00323187
13.6042
0.00329343
13.6001
0.00335624
13.5959
0.00342012
13.5917
0.00348528
13.5873
0.00355163
13.5829
0.00361921
13.5783
0.00368807
13.5737
0.00375824
13.569
0.00382972
13.5642
0.00390254
13.5593
0.00397677
13.5543
0.00405237
13.5491
0.00412941
13.5439
0.00420796
13.5386
0.00428796
13.5332
0.0043695
13.5276
0.00445263
13.522
0.0045373
13.5162
0.00462364
13.5103
0.00471165
13.5043
0.00480136
13.4982
0.00489282
13.492
0.00498608
13.4856
0.00508116
13.4791
0.00517809
13.4724
0.00527697
13.4657
0.0053778
13.4587
0.00548064
13.4517
0.00558554
13.4445
0.00569258
13.4371
0.00580175
13.4296
0.00591318
13.422
0.00602688
13.4142
0.00614291
13.4062
0.00626139
13.3981
0.0063823
13.3897
0.00650576
13.3813
0.00663188
13.3726
0.00676064
13.3638
0.00689217
13.3548
0.00702653
13.3456
0.00716382
13.3362
0.00730411
13.3266
0.0074475
13.3168
0.00759412
13.3068
0.00774407
13.2967
0.00789737
13.2862
0.00805418
13.2756
0.0082146
13.2648
0.00837867
13.2537
0.00854658
13.2424
0.00871847
13.2309
0.00889451
13.2191
0.00907481
13.2071
0.00925954
13.1948
0.00944878
13.1823
0.00964258
13.1695
0.00984114
13.1565
0.0100446
13.1432
0.0102532
13.1296
0.0104674
13.1157
0.0106872
13.1015
0.0109128
13.087
0.0111441
13.0722
0.0113814
13.0572
0.0116247
13.0417
0.0118747
13.026
0.0121317
13.01
0.012396
12.9936
0.0126676
12.9768
0.0129465
12.9597
0.0132328
12.9423
0.0135268
12.9244
0.0138293
12.9062
0.014141
12.8876
0.0144621
12.8687
0.0147926
12.8493
0.0151322
12.8295
0.0154807
12.8093
0.0158389
12.7886
0.0162079
12.7676
0.0165887
12.746
0.0169818
12.7241
0.0173871
12.7016
0.0178042
12.6787
0.0182325
12.6553
0.0186727
12.6314
0.0191259
12.6069
0.0195936
12.582
0.0200768
12.5565
0.0205757
12.5305
0.0210898
12.5039
0.021619
12.4768
0.0221633
12.4491
0.0227239
12.4207
0.0233018
12.3918
0.0238979
12.3623
0.0245128
12.3321
0.0251468
12.3013
0.0258001
12.2698
0.0264735
12.2376
0.0271678
12.2047
0.0278838
12.1712
0.028622
12.1369
0.0293824
12.1018
0.0301654
12.066
0.0309715
12.0295
0.031802
11.9921
0.0326582
11.9539
0.0335413
11.915
0.0344526
11.8751
0.0353924
11.8344
0.0363608
11.7928
0.0373574
11.7503
0.0383825
11.7069
0.0394362
11.6625
0.0405203
11.6172
0.0416373
11.5709
0.0427899
11.5235
0.0439803
11.4751
0.0452087
11.4257
0.0464733
11.3752
0.0477717
11.3236
0.0491026
11.2708
0.0504682
11.2169
0.0518735
11.1618
0.0533247
11.1055
0.0548259
11.0479
0.0563766
10.9891
0.0579717
10.929
0.0596052
10.8676
0.0612747
10.8048
0.0629848
10.7406
0.0647462
10.675
0.0665699
10.6079
0.0684602
10.5393
0.0704115
10.4693
0.0724109
10.3976
0.0744481
10.3244
0.0765245
10.2496
0.0786558
10.1731
0.0808634
10.0949
0.0831667
0.0855479
13.0211
0.0044649
-13.0234
13.0187
0.00455255
13.0163
0.00464193
13.0138
0.0047331
13.0113
0.00482611
13.0087
0.00492094
13.006
0.00501767
13.0034
0.00511637
13.0006
0.00521699
12.9978
0.00531964
12.995
0.00542433
12.9921
0.00553112
12.9891
0.00564002
12.9861
0.00575114
12.983
0.00586444
12.9799
0.00598002
12.9766
0.00609795
12.9734
0.00621819
12.97
0.00634085
12.9666
0.006466
12.9631
0.00659359
12.9596
0.00672382
12.9559
0.00685658
12.9522
0.00699207
12.9485
0.00713027
12.9446
0.00727126
12.9407
0.00741504
12.9367
0.00756178
12.9326
0.00771143
12.9284
0.00786411
12.9242
0.00801986
12.9198
0.0081788
12.9154
0.00834093
12.9108
0.00850634
12.9062
0.00867511
12.9015
0.00884728
12.8967
0.00902302
12.8918
0.00920227
12.8868
0.00938522
12.8816
0.0095719
12.8764
0.00976235
12.8711
0.00995675
12.8656
0.0101551
12.8601
0.0103575
12.8544
0.0105642
12.8486
0.010775
12.8427
0.0109903
12.8367
0.01121
12.8305
0.0114342
12.8242
0.0116631
12.8178
0.0118968
12.8113
0.0121353
12.8046
0.0123789
12.7978
0.0126276
12.7908
0.0128815
12.7837
0.0131408
12.7764
0.0134055
12.769
0.0136759
12.7614
0.0139521
12.7537
0.0142341
12.7458
0.0145222
12.7377
0.0148165
12.7295
0.0151171
12.7211
0.0154243
12.7126
0.0157381
12.7038
0.0160587
12.6949
0.0163864
12.6857
0.0167213
12.6764
0.0170636
12.6669
0.0174134
12.6572
0.017771
12.6473
0.0181366
12.6371
0.0185103
12.6268
0.0188925
12.6162
0.0192834
12.6054
0.0196831
12.5944
0.020092
12.5832
0.0205102
12.5717
0.020938
12.5599
0.0213756
12.548
0.0218233
12.5357
0.0222815
12.5232
0.0227506
12.5105
0.0232308
12.4974
0.0237225
12.4841
0.0242257
12.4705
0.0247407
12.4566
0.0252678
12.4424
0.0258076
12.428
0.0263606
12.4132
0.0269274
12.398
0.0275084
12.3826
0.0281035
12.3668
0.0287129
12.3507
0.0293368
12.3343
0.029976
12.3175
0.0306315
12.3003
0.0313039
12.2828
0.0319938
12.2649
0.0327013
12.2466
0.033426
12.2279
0.0341683
12.2088
0.0349289
12.1893
0.0357093
12.1694
0.0365106
12.149
0.0373337
12.1282
0.0381786
12.107
0.0390448
12.0853
0.0399323
12.0631
0.0408418
12.0405
0.041775
12.0173
0.0427334
11.9937
0.0437182
11.9696
0.0447298
11.9449
0.0457682
11.9197
0.0468334
11.8939
0.0479257
11.8676
0.0490467
11.8407
0.0501974
11.8132
0.0513792
11.7851
0.0525928
11.7564
0.053839
11.7271
0.0551184
11.6971
0.0564321
11.6665
0.0577812
11.6353
0.0591668
11.6033
0.0605895
11.5706
0.0620498
11.5372
0.0635483
11.5031
0.0650863
11.4683
0.0666653
11.4326
0.0682872
11.3962
0.0699536
11.359
0.0716657
11.321
0.0734243
11.2821
0.07523
11.2424
0.077083
11.2018
0.078984
11.1603
0.0809338
11.1179
0.0829347
11.0745
0.0849894
11.0302
0.0871012
10.9849
0.0892725
10.9386
0.091504
10.8913
0.0937945
10.8429
0.096142
10.7935
0.0985464
10.7429
0.101011
10.6913
0.10354
10.6384
0.106142
10.5845
0.10882
10.5293
0.111574
10.4728
0.114399
10.4151
0.11729
10.3562
0.120246
10.2959
0.123274
10.2342
0.126386
10.1712
0.129592
10.1068
0.132896
10.0409
0.136291
9.97356
0.139765
9.90469
0.14331
9.83429
0.146931
9.7623
0.150647
9.68868
0.15448
9.6134
0.158446
0.162523
12.3967
0.00660109
-12.3989
12.3945
0.00673214
12.3923
0.0068658
12.3901
0.00700226
12.3877
0.00714147
12.3854
0.00728352
12.383
0.00742847
12.3805
0.00757638
12.378
0.00772729
12.3754
0.00788133
12.3728
0.00803846
12.3701
0.00819884
12.3674
0.00836248
12.3646
0.00852949
12.3618
0.00869988
12.3589
0.00887382
12.356
0.00905128
12.353
0.00923242
12.3499
0.00941721
12.3467
0.00960583
12.3435
0.00979836
12.3403
0.00999477
12.3369
0.0101953
12.3335
0.0103999
12.33
0.0106087
12.3265
0.0108219
12.3229
0.0110393
12.3192
0.0112614
12.3154
0.011488
12.3115
0.0117193
12.3076
0.0119553
12.3036
0.0121963
12.2995
0.0124422
12.2953
0.0126933
12.291
0.0129495
12.2866
0.013211
12.2822
0.0134781
12.2776
0.0137507
12.273
0.0140289
12.2683
0.014313
12.2634
0.014603
12.2585
0.014899
12.2534
0.0152013
12.2483
0.0155099
12.243
0.0158249
12.2376
0.0161467
12.2322
0.0164752
12.2266
0.0168106
12.2208
0.0171531
12.215
0.0175028
12.209
0.0178599
12.203
0.0182247
12.1967
0.0185972
12.1904
0.0189776
12.1839
0.0193662
12.1773
0.0197631
12.1705
0.0201685
12.1636
0.0205825
12.1566
0.0210056
12.1493
0.0214376
12.142
0.0218792
12.1345
0.0223302
12.1268
0.022791
12.119
0.0232619
12.111
0.023743
12.1028
0.0242347
12.0944
0.0247372
12.0859
0.0252508
12.0772
0.0257756
12.0683
0.026312
12.0592
0.0268604
12.0499
0.0274209
12.0404
0.027994
12.0308
0.02858
12.0209
0.0291791
12.0107
0.0297917
12.0004
0.0304179
11.9899
0.0310585
11.9791
0.0317135
11.9681
0.0323836
11.9568
0.033069
11.9454
0.0337701
11.9336
0.0344875
11.9216
0.0352214
11.9094
0.0359722
11.8969
0.0367404
11.8841
0.0375264
11.871
0.0383308
11.8577
0.0391541
11.844
0.0399969
11.8301
0.0408599
11.8159
0.0417436
11.8013
0.0426481
11.7865
0.0435738
11.7713
0.0445212
11.7558
0.0454912
11.7399
0.0464848
11.7237
0.0475032
11.7072
0.0485468
11.6902
0.0496157
11.673
0.05071
11.6553
0.05183
11.6372
0.052977
11.6188
0.0541524
11.6
0.0553578
11.5807
0.056594
11.561
0.0578613
11.5409
0.0591594
11.5203
0.0604885
11.4993
0.0618496
11.4779
0.0632444
11.4559
0.0646749
11.4335
0.0661427
11.4106
0.0676481
11.3872
0.0691916
11.3632
0.0707732
11.3387
0.0723937
11.3137
0.0740546
11.2882
0.0757574
11.2621
0.0775038
11.2354
0.079295
11.2081
0.0811317
11.1802
0.0830153
11.1516
0.0849471
11.1225
0.0869285
11.0927
0.0889605
11.0623
0.091044
11.0311
0.0931801
10.9993
0.0953697
10.9668
0.0976147
10.9335
0.0999171
10.8995
0.102279
10.8648
0.104703
10.8293
0.107189
10.7929
0.10974
10.7558
0.112355
10.7179
0.115037
10.6791
0.117784
10.6394
0.120601
10.5988
0.123489
10.5574
0.126452
10.515
0.129492
10.4716
0.132614
10.4273
0.135816
10.382
0.1391
10.3357
0.142463
10.2883
0.145907
10.2399
0.149436
10.1904
0.153055
10.1398
0.156773
10.088
0.160592
10.0351
0.164511
9.98094
0.168527
9.92559
0.172637
9.869
0.176841
9.81112
0.181149
9.75194
0.185571
9.69141
0.190119
9.62951
0.194794
9.56621
0.199588
9.50149
0.204491
9.4353
0.209499
9.36761
0.214622
9.29837
0.21988
9.22756
0.225293
9.15513
0.230873
0.236592
11.8011
0.00855823
-11.803
11.7991
0.00872951
11.7971
0.00890438
11.795
0.00908284
11.7929
0.00926501
11.7907
0.00945091
11.7885
0.00964068
11.7862
0.00983441
11.7839
0.0100321
11.7816
0.0102339
11.7792
0.0104399
11.7767
0.0106502
11.7742
0.0108648
11.7716
0.0110839
11.769
0.0113075
11.7664
0.0115358
11.7637
0.0117689
11.7609
0.0120067
11.7581
0.0122496
11.7552
0.0124974
11.7522
0.0127505
11.7492
0.0130089
11.7461
0.0132726
11.743
0.0135418
11.7398
0.0138167
11.7365
0.0140973
11.7331
0.0143838
11.7297
0.0146762
11.7262
0.0149749
11.7227
0.0152798
11.719
0.0155911
11.7153
0.0159088
11.7115
0.0162333
11.7077
0.0165647
11.7037
0.016903
11.6997
0.0172484
11.6956
0.0176011
11.6913
0.0179613
11.687
0.0183291
11.6827
0.0187046
11.6782
0.0190881
11.6736
0.0194798
11.6689
0.0198797
11.6641
0.0202882
11.6593
0.0207053
11.6543
0.0211314
11.6492
0.0215665
11.644
0.0220109
11.6387
0.0224648
11.6332
0.0229284
11.6277
0.023402
11.622
0.0238858
11.6163
0.0243799
11.6103
0.0248847
11.6043
0.0254003
11.5981
0.0259272
11.5919
0.0264654
11.5854
0.0270153
11.5788
0.0275771
11.5721
0.0281511
11.5653
0.0287377
11.5583
0.029337
11.5511
0.0299495
11.5438
0.0305754
11.5363
0.0312151
11.5287
0.0318689
11.5209
0.032537
11.5129
0.0332198
11.5048
0.0339178
11.4965
0.0346313
11.488
0.0353608
11.4793
0.0361065
11.4704
0.036869
11.4613
0.0376484
11.4521
0.0384453
11.4426
0.03926
11.4329
0.0400931
11.423
0.0409452
11.4129
0.0418167
11.4026
0.0427081
11.3921
0.0436198
11.3813
0.0445523
11.3703
0.045506
11.359
0.0464815
11.3475
0.0474796
11.3357
0.0485007
11.3237
0.0495456
11.3114
0.0506146
11.2989
0.0517085
11.286
0.0528281
11.2729
0.0539739
11.2595
0.0551468
11.2458
0.056347
11.2318
0.0575754
11.2175
0.0588323
11.2029
0.0601189
11.1879
0.0614365
11.1726
0.062786
11.157
0.0641682
11.1411
0.0655834
11.1247
0.0670319
11.1081
0.0685143
11.091
0.0700318
11.0736
0.0715862
11.0557
0.0731792
11.0375
0.0748121
11.0189
0.076485
10.9999
0.078198
10.9804
0.0799513
10.9605
0.0817462
10.9402
0.0835848
10.9194
0.0854693
10.8981
0.0874015
10.8764
0.0893822
10.8542
0.0914117
10.8314
0.0934904
10.8082
0.0956192
10.7845
0.0977998
10.7602
0.100034
10.7354
0.102325
10.71
0.104672
10.684
0.107079
10.6575
0.109545
10.6304
0.112073
10.6027
0.114663
10.5743
0.117319
10.5453
0.12004
10.5157
0.122828
10.4853
0.125685
10.4543
0.128612
10.4226
0.131613
10.3902
0.13469
10.3571
0.137845
10.3232
0.14108
10.2885
0.144395
10.2531
0.147793
10.2169
0.151274
10.1798
0.154841
10.1419
0.158496
10.1032
0.162241
10.0635
0.166082
10.023
0.170021
9.98156
0.174061
9.93918
0.178203
9.89583
0.182447
9.8515
0.186793
9.80616
0.191244
9.75979
0.195803
9.71237
0.200478
9.66387
0.205275
9.61426
0.210198
9.56353
0.215246
9.51164
0.220416
9.45857
0.225707
9.40429
0.231121
9.34877
0.236669
9.29198
0.242362
9.23389
0.248209
9.17447
0.254211
9.1137
0.260361
9.05154
0.26665
8.98796
0.273078
8.92292
0.279659
8.85639
0.286413
8.78833
0.293358
8.7187
0.300503
0.307813
11.2346
0.0103498
-11.2364
11.2327
0.0105586
11.2309
0.0107718
11.229
0.0109894
11.227
0.0112116
11.225
0.0114384
11.223
0.01167
11.2209
0.0119064
11.2188
0.0121477
11.2167
0.0123941
11.2144
0.0126457
11.2122
0.0129025
11.2099
0.0131648
11.2075
0.0134325
11.2051
0.0137059
11.2027
0.013985
11.2002
0.01427
11.1976
0.014561
11.195
0.0148581
11.1924
0.0151614
11.1896
0.0154711
11.1869
0.0157874
11.184
0.0161104
11.1811
0.0164402
11.1782
0.0167769
11.1751
0.0171208
11.1721
0.0174719
11.1689
0.0178305
11.1657
0.0181967
11.1624
0.0185706
11.159
0.0189525
11.1556
0.0193425
11.1521
0.0197407
11.1485
0.0201475
11.1448
0.0205629
11.1411
0.0209871
11.1373
0.0214204
11.1334
0.0218629
11.1294
0.0223149
11.1253
0.0227766
11.1212
0.0232481
11.1169
0.0237297
11.1126
0.0242217
11.1081
0.0247242
11.1036
0.0252375
11.099
0.0257619
11.0942
0.0262975
11.0894
0.0268447
11.0845
0.0274037
11.0794
0.0279748
11.0743
0.0285582
11.069
0.0291543
11.0636
0.0297633
11.0581
0.0303856
11.0525
0.0310214
11.0468
0.031671
11.0409
0.0323348
11.0349
0.0330131
11.0288
0.0337062
11.0225
0.0344145
11.0161
0.0351384
11.0096
0.0358782
11.0029
0.0366344
10.996
0.0374072
10.9891
0.0381971
10.9819
0.0390043
10.9746
0.0398295
10.9672
0.040673
10.9596
0.0415353
10.9518
0.042417
10.9438
0.0433184
10.9357
0.04424
10.9274
0.0451822
10.9189
0.0461454
10.9102
0.0471302
10.9013
0.0481373
10.8922
0.0491673
10.883
0.0502209
10.8735
0.0512984
10.8638
0.0524005
10.8539
0.0535275
10.8437
0.0546801
10.8334
0.055859
10.8228
0.057065
10.812
0.0582991
10.8009
0.0595617
10.7896
0.0608535
10.7781
0.0621752
10.7662
0.0635273
10.7542
0.0649109
10.7418
0.0663269
10.7292
0.0677762
10.7163
0.0692595
10.7031
0.0707773
10.6896
0.0723304
10.6758
0.0739199
10.6617
0.0755473
10.6472
0.0772138
10.6325
0.0789204
10.6174
0.0806675
10.602
0.0824555
10.5862
0.0842851
10.5701
0.0861578
10.5536
0.0880757
10.5367
0.0900407
10.5195
0.0920542
10.5018
0.0941165
10.4838
0.0962278
10.4654
0.0983884
10.4465
0.1006
10.4272
0.102865
10.4075
0.105186
10.3874
0.107565
10.3667
0.110002
10.3457
0.112499
10.3241
0.115056
10.302
0.117674
10.2795
0.120354
10.2564
0.123101
10.2328
0.125915
10.2087
0.128799
10.184
0.131754
10.1588
0.134781
10.133
0.137883
10.1066
0.141061
10.0796
0.144316
10.052
0.147652
10.0237
0.151069
9.99485
0.154569
9.9653
0.158155
9.93509
0.16183
9.90418
0.165597
9.87257
0.169457
9.84023
0.173413
9.80716
0.177466
9.77334
0.181619
9.73874
0.185873
9.70335
0.190231
9.66715
0.194695
9.63012
0.199269
9.59224
0.203958
9.5535
0.208764
9.51387
0.213691
9.47333
0.218741
9.43186
0.223914
9.38945
0.229211
9.34606
0.234634
9.30167
0.240189
9.25626
0.245884
9.20981
0.251724
9.1623
0.257715
9.11369
0.263855
9.06396
0.270142
9.01309
0.276576
8.96105
0.283161
8.90781
0.289908
8.85334
0.29683
8.79762
0.303934
8.74061
0.311221
8.68229
0.318683
8.62262
0.326315
8.56158
0.334119
8.49913
0.342112
8.43522
0.350315
8.36984
0.358745
8.30294
0.367402
0.376254
10.6949
0.0119932
-10.6965
10.6932
0.0122368
10.6915
0.0124857
10.6897
0.0127398
10.6879
0.0129992
10.6861
0.0132641
10.6842
0.0135346
10.6823
0.0138108
10.6804
0.0140929
10.6784
0.0143809
10.6764
0.014675
10.6743
0.0149753
10.6722
0.0152819
10.67
0.0155951
10.6678
0.0159149
10.6656
0.0162415
10.6632
0.016575
10.6609
0.0169156
10.6585
0.0172634
10.656
0.0176187
10.6535
0.0179814
10.651
0.0183519
10.6483
0.0187303
10.6457
0.0191168
10.6429
0.0195115
10.6401
0.0199146
10.6373
0.0203263
10.6344
0.0207468
10.6314
0.0211763
10.6283
0.0216149
10.6252
0.022063
10.622
0.0225207
10.6188
0.0229882
10.6155
0.0234657
10.6121
0.0239535
10.6086
0.0244518
10.6051
0.0249607
10.6015
0.0254807
10.5978
0.0260118
10.594
0.0265544
10.5901
0.0271087
10.5862
0.027675
10.5822
0.0282535
10.578
0.0288446
10.5738
0.0294484
10.5695
0.0300654
10.5651
0.0306957
10.5606
0.0313398
10.556
0.0319979
10.5513
0.0326703
10.5465
0.0333573
10.5416
0.0340594
10.5366
0.0347768
10.5315
0.0355099
10.5263
0.0362591
10.5209
0.0370247
10.5154
0.0378072
10.5098
0.0386068
10.5041
0.0394241
10.4983
0.0402594
10.4923
0.0411132
10.4862
0.041986
10.48
0.042878
10.4736
0.0437899
10.467
0.0447219
10.4604
0.0456747
10.4536
0.0466487
10.4466
0.0476446
10.4395
0.0486629
10.4322
0.049704
10.4247
0.0507685
10.4171
0.0518569
10.4093
0.0529696
10.4014
0.0541073
10.3932
0.0552709
10.3849
0.056461
10.3764
0.0576782
10.3677
0.0589233
10.3588
0.0601967
10.3497
0.061499
10.3404
0.0628309
10.3309
0.0641931
10.3211
0.0655867
10.3112
0.0670126
10.301
0.0684717
10.2906
0.0699645
10.28
0.0714917
10.2691
0.0730541
10.258
0.0746525
10.2466
0.0762882
10.235
0.0779624
10.2231
0.079676
10.2109
0.0814297
10.1984
0.0832241
10.1857
0.0850602
10.1727
0.0869393
10.1594
0.0888631
10.1458
0.090833
10.1318
0.0928502
10.1176
0.0949151
10.103
0.0970281
10.0881
0.0991902
10.0729
0.101403
10.0573
0.10367
10.0413
0.105992
10.025
0.10837
10.0083
0.110806
9.99123
0.113299
9.97377
0.115851
9.95591
0.118462
9.93763
0.121137
9.91894
0.123877
9.89982
0.126685
9.88026
0.129562
9.86025
0.132508
9.83979
0.135524
9.81885
0.138612
9.79743
0.141774
9.77552
0.145013
9.7531
0.148331
9.73017
0.151731
9.70671
0.155214
9.68271
0.158781
9.65816
0.162436
9.63304
0.166179
9.60734
0.170013
9.58105
0.173941
9.55416
0.177964
9.52664
0.182085
9.49849
0.186306
9.46969
0.19063
9.44023
0.195061
9.41008
0.199601
9.37925
0.204252
9.34769
0.209018
9.31541
0.2139
9.28239
0.2189
9.2486
0.224021
9.21403
0.229266
9.17866
0.234639
9.14247
0.240145
9.10544
0.245789
9.06756
0.251573
9.0288
0.257501
8.98915
0.263571
8.94857
0.269785
8.90706
0.276147
8.86458
0.282664
8.82113
0.289343
8.77666
0.296193
8.73116
0.303216
8.6846
0.310412
8.63696
0.317779
8.58822
0.325316
8.53835
0.333032
8.48732
0.340938
8.4351
0.349048
8.38167
0.357369
8.32699
0.365899
8.27104
0.374631
8.2138
0.383561
8.15522
0.392696
8.09528
0.402055
8.03393
0.411661
7.97115
0.421526
7.90691
0.431647
0.441991
10.1811
0.0134992
-10.1826
10.1795
0.0137754
10.178
0.0140575
10.1764
0.0143456
10.1747
0.0146398
10.173
0.0149403
10.1713
0.0152471
10.1696
0.0155605
10.1678
0.0158805
10.166
0.0162073
10.1641
0.0165412
10.1622
0.0168821
10.1603
0.0172303
10.1583
0.0175859
10.1562
0.0179491
10.1541
0.0183201
10.152
0.018699
10.1499
0.0190861
10.1476
0.0194814
10.1454
0.0198852
10.1431
0.0202976
10.1407
0.0207189
10.1383
0.0211492
10.1358
0.0215887
10.1333
0.0220377
10.1307
0.0224964
10.128
0.0229649
10.1254
0.0234436
10.1226
0.0239325
10.1198
0.0244319
10.1169
0.0249422
10.114
0.0254635
10.1109
0.025996
10.1079
0.02654
10.1047
0.0270958
10.1015
0.0276636
10.0982
0.0282438
10.0949
0.0288365
10.0915
0.0294422
10.0879
0.030061
10.0844
0.0306932
10.0807
0.0313392
10.077
0.0319992
10.0731
0.0326736
10.0692
0.0333628
10.0652
0.0340671
10.0611
0.0347867
10.0569
0.0355221
10.0527
0.0362736
10.0483
0.0370416
10.0438
0.0378264
10.0392
0.0386285
10.0346
0.0394483
10.0298
0.0402862
10.0249
0.0411425
10.0199
0.0420178
10.0148
0.0429124
10.0096
0.0438268
10.0043
0.0447615
9.9988
0.045717
9.99322
0.0466938
9.98752
0.0476923
9.98168
0.048713
9.97571
0.0497565
9.96961
0.0508233
9.96337
0.051914
9.95699
0.0530292
9.95047
0.0541697
9.9438
0.0553358
9.93697
0.0565281
9.92999
0.0577472
9.92286
0.0589938
9.91556
0.0602686
9.90809
0.0615723
9.90046
0.0629059
9.89265
0.0642699
9.88466
0.0656651
9.87649
0.0670922
9.86814
0.0685518
9.85959
0.0700445
9.85085
0.0715714
9.84191
0.0731335
9.83277
0.0747318
9.82341
0.0763673
9.81384
0.0780406
9.80405
0.0797527
9.79404
0.0815042
9.7838
0.0832961
9.77332
0.0851297
9.7626
0.0870062
9.75164
0.088927
9.74042
0.090893
9.72895
0.0929049
9.71721
0.0949635
9.7052
0.0970701
9.69291
0.0992261
9.68034
0.101434
9.66748
0.103694
9.65432
0.106008
9.64086
0.108377
9.62709
0.110801
9.61299
0.113282
9.59858
0.115821
9.58383
0.118422
9.56873
0.121085
9.55329
0.123814
9.53749
0.126608
9.52132
0.129468
9.50477
0.132394
9.48785
0.135389
9.47053
0.138457
9.4528
0.1416
9.43467
0.14482
9.41611
0.148119
9.39712
0.151496
9.37769
0.154953
9.35781
0.158493
9.33747
0.162117
9.31665
0.16583
9.29535
0.169634
9.27355
0.17353
9.25124
0.177521
9.22842
0.181608
9.20506
0.185793
9.18116
0.19008
9.1567
0.194472
9.13167
0.19897
9.10606
0.203577
9.07985
0.208295
9.05302
0.213127
9.02558
0.218077
8.99749
0.223147
8.96875
0.228342
8.93934
0.233665
8.90924
0.239117
8.87844
0.244702
8.84692
0.250421
8.81466
0.256277
8.78165
0.262274
8.74787
0.268418
8.7133
0.274713
8.67793
0.281165
8.64172
0.287777
8.60467
0.29455
8.56676
0.301486
8.52796
0.308585
8.48825
0.315852
8.44762
0.323297
8.40604
0.330928
8.36348
0.338752
8.31992
0.346773
8.27534
0.354988
8.22973
0.363395
8.18305
0.371998
8.13527
0.380806
8.08638
0.389833
8.03633
0.399092
7.98511
0.408588
7.93269
0.418318
7.87905
0.428276
7.82415
0.438459
7.76797
0.448881
7.71046
0.459563
7.65159
0.470525
7.59134
0.481777
7.52968
0.493312
0.505097
9.69187
0.0148815
-9.69325
9.69046
0.015188
9.68901
0.0155011
9.68754
0.0158209
9.68603
0.0161475
9.68449
0.0164811
9.68291
0.0168218
9.6813
0.0171699
9.67966
0.0175254
9.67798
0.0178885
9.67626
0.0182594
9.6745
0.0186383
9.67271
0.0190253
9.67087
0.0194206
9.669
0.0198245
9.66708
0.020237
9.66512
0.0206584
9.66312
0.0210889
9.66107
0.0215286
9.65898
0.0219779
9.65684
0.0224368
9.65465
0.0229056
9.65242
0.0233846
9.65013
0.023874
9.6478
0.0243739
9.64541
0.0248846
9.64297
0.0254064
9.64047
0.0259396
9.63792
0.0264843
9.63531
0.0270408
9.63264
0.0276094
9.62992
0.0281903
9.62713
0.028784
9.62428
0.0293905
9.62136
0.0300102
9.61838
0.0306435
9.61534
0.0312905
9.61222
0.0319517
9.60904
0.0326274
9.60578
0.0333179
9.60245
0.0340234
9.59904
0.0347444
9.59556
0.0354812
9.592
0.0362342
9.58836
0.0370038
9.58464
0.0377902
9.58083
0.0385941
9.57694
0.0394155
9.57295
0.0402552
9.56888
0.0411133
9.56472
0.0419904
9.56046
0.042887
9.55611
0.0438034
9.55165
0.0447401
9.5471
0.0456977
9.54244
0.0466765
9.53767
0.0476771
9.5328
0.0487
9.52782
0.0497457
9.52272
0.0508149
9.5175
0.051908
9.51217
0.0530255
9.50672
0.054168
9.50114
0.0553361
9.49543
0.0565306
9.48959
0.0577521
9.48362
0.0590012
9.47751
0.0602785
9.47126
0.0615847
9.46487
0.0629203
9.45833
0.0642862
9.45164
0.0656831
9.4448
0.0671118
9.4378
0.0685733
9.43063
0.0700683
9.42331
0.0715975
9.41581
0.0731617
9.40814
0.0747616
9.40029
0.0763982
9.39227
0.0780723
9.38405
0.079785
9.37565
0.0815375
9.36705
0.0833307
9.35825
0.0851656
9.34925
0.087043
9.34004
0.0889639
9.33061
0.0909292
9.32097
0.0929402
9.3111
0.0949982
9.301
0.0971046
9.29067
0.0992608
9.28009
0.101468
9.26927
0.103726
9.2582
0.106037
9.24687
0.108402
9.23527
0.110823
9.2234
0.113302
9.21126
0.11584
9.19883
0.118438
9.18611
0.121098
9.17309
0.12382
9.15976
0.126605
9.14613
0.129457
9.13217
0.132378
9.11789
0.135369
9.10327
0.138433
9.08831
0.14157
9.07299
0.144781
9.05732
0.148067
9.04128
0.151431
9.02486
0.154876
9.00806
0.158406
8.99085
0.162021
8.97325
0.165724
8.95523
0.169516
8.93679
0.173397
8.91791
0.17737
8.89859
0.18144
8.87881
0.185608
8.85857
0.189878
8.83784
0.194251
8.81664
0.198729
8.79493
0.203315
8.77271
0.208012
8.74997
0.212823
8.72669
0.217751
8.70286
0.222798
8.67847
0.227966
8.65351
0.233259
8.62795
0.238679
8.6018
0.24423
8.57503
0.249917
8.54763
0.255744
8.51958
0.261713
8.49087
0.267827
8.46149
0.274088
8.43141
0.280499
8.40062
0.287063
8.36911
0.293785
8.33686
0.300671
8.30384
0.307728
8.27005
0.314959
8.23546
0.322369
8.20005
0.329957
8.16381
0.337725
8.12672
0.345677
8.08875
0.353818
8.04989
0.362159
8.01011
0.370709
7.96939
0.379474
7.92771
0.388455
7.88504
0.397651
7.84138
0.407062
7.79668
0.416693
7.75093
0.426556
7.7041
0.436667
7.65615
0.447036
7.60708
0.457666
7.55684
0.468552
7.50543
0.47969
7.4528
0.491084
7.39893
0.50275
7.34379
0.514711
7.28733
0.526985
7.22953
0.539575
7.17037
0.552472
0.565648
9.22608
0.0161495
-9.22735
9.22479
0.0164843
9.22346
0.0168263
9.22211
0.0171757
9.22072
0.0175325
9.21931
0.0178971
9.21786
0.0182695
9.21638
0.0186499
9.21486
0.0190386
9.21332
0.0194356
9.21174
0.0198412
9.21012
0.0202555
9.20847
0.0206789
9.20677
0.0211113
9.20505
0.0215531
9.20328
0.0220045
9.20147
0.0224657
9.19962
0.0229369
9.19773
0.0234183
9.1958
0.0239101
9.19383
0.0244126
9.1918
0.024926
9.18974
0.0254507
9.18763
0.0259867
9.18547
0.0265343
9.18326
0.027094
9.181
0.0276658
9.17869
0.0282501
9.17632
0.0288471
9.17391
0.0294572
9.17144
0.0300806
9.16891
0.0307177
9.16632
0.0313687
9.16368
0.0320339
9.16098
0.0327138
9.15821
0.0334085
9.15538
0.0341186
9.15249
0.0348442
9.14953
0.0355858
9.14651
0.0363437
9.14341
0.0371182
9.14025
0.0379099
9.13701
0.0387191
9.1337
0.039546
9.13031
0.0403914
9.12684
0.0412554
9.1233
0.0421385
9.11967
0.0430412
9.11597
0.0439639
9.11217
0.0449072
9.10829
0.0458714
9.10432
0.0468571
9.10026
0.0478648
9.0961
0.0488949
9.09185
0.049948
9.08751
0.0510247
9.08306
0.0521255
9.07851
0.053251
9.07385
0.0544018
9.06909
0.0555785
9.06421
0.0567815
9.05923
0.0580116
9.05413
0.0592694
9.04891
0.0605557
9.04357
0.0618712
9.0381
0.0632166
9.03251
0.0645924
9.02679
0.0659995
9.02093
0.0674384
9.01494
0.0689101
9.00882
0.0704152
9.00254
0.0719549
8.99613
0.07353
8.98956
0.0751412
8.98284
0.0767894
8.97596
0.0784754
8.96892
0.0802001
8.96172
0.0819644
8.95435
0.0837694
8.9468
0.0856163
8.93908
0.087506
8.93118
0.0894397
8.92309
0.0914183
8.91481
0.093443
8.90634
0.0955147
8.89767
0.0976346
8.8888
0.0998039
8.87971
0.102024
8.87042
0.104296
8.8609
0.106622
8.85116
0.109002
8.84119
0.111439
8.83098
0.113933
8.82053
0.116485
8.80984
0.119097
8.79889
0.121771
8.78768
0.124509
8.77621
0.127313
8.76446
0.130183
8.75244
0.133121
8.74013
0.136127
8.72753
0.139205
8.71463
0.142356
8.70143
0.145583
8.68791
0.148889
8.67407
0.152274
8.6599
0.155739
8.64539
0.159287
8.63054
0.162918
8.61534
0.166635
8.59977
0.170443
8.58383
0.174343
8.56752
0.178338
8.55081
0.182429
8.53371
0.186617
8.5162
0.190906
8.49827
0.195297
8.47992
0.199793
8.46113
0.204399
8.44189
0.209116
8.42219
0.213947
8.40203
0.218894
8.38139
0.22396
8.36025
0.229149
8.33861
0.234464
8.31645
0.239907
8.29377
0.245482
8.27054
0.25119
8.24677
0.257035
8.22243
0.26302
8.19751
0.269151
8.17199
0.275432
8.14587
0.281866
8.11913
0.288457
8.09174
0.295207
8.06371
0.302119
8.03502
0.309195
8.00564
0.316441
7.97556
0.323862
7.94477
0.331465
7.91324