/*--------------------------------*- C++ -*----------------------------------*\
  =========                 |
  \\      /  F ield         | OpenFOAM: The Open Source CFD Toolbox
   \\    /   O peration     | Website:  https://openfoam.org
    \\  /    A nd           | Version:  13
     \\/     M anipulation  |
\*---------------------------------------------------------------------------*/
FoamFile
{
    format      ascii;
    class       volVectorField;
    location    "0.45";
    object      U;
}
// * * * * * * * * * * * * * * * * * * * * * * * * * * * * * * * * * * * * * //

dimensions      [0 1 -1 0 0 0 0];

internalField   nonuniform List<vector> 
68864
(
(30.0155 -0.131041 -1.42423e-21)
(30.0156 -0.131586 -4.27889e-23)
(30.0156 -0.132137 1.14516e-20)
(30.0157 -0.132696 -1.27745e-20)
(30.0157 -0.13326 1.23551e-21)
(30.0158 -0.133832 -1.87949e-21)
(30.0158 -0.134411 5.73497e-21)
(30.0159 -0.134997 -1.87749e-21)
(30.016 -0.13559 2.10949e-21)
(30.016 -0.13619 -7.65825e-21)
(30.0161 -0.136797 4.36782e-21)
(30.0161 -0.137411 5.41012e-22)
(30.0162 -0.138032 -8.859e-21)
(30.0163 -0.138661 3.61728e-21)
(30.0163 -0.139297 5.06807e-21)
(30.0164 -0.139941 -3.32138e-21)
(30.0164 -0.140591 5.1357e-21)
(30.0165 -0.141249 3.6442e-21)
(30.0166 -0.141915 -1.82655e-21)
(30.0166 -0.142588 -5.99742e-21)
(30.0167 -0.143269 8.80556e-21)
(30.0168 -0.143958 4.48639e-21)
(30.0168 -0.144654 -6.17309e-21)
(30.0169 -0.145358 -6.95663e-21)
(30.017 -0.146069 4.1224e-21)
(30.017 -0.146788 -8.13081e-21)
(30.0171 -0.147515 3.7171e-21)
(30.0172 -0.148249 8.12306e-21)
(30.0172 -0.148991 -1.78013e-20)
(30.0173 -0.149741 -1.25491e-20)
(30.0174 -0.150499 3.84284e-21)
(30.0175 -0.151265 1.04321e-20)
(30.0175 -0.152038 -7.54256e-21)
(30.0176 -0.152819 2.00938e-20)
(30.0177 -0.153608 1.19984e-20)
(30.0177 -0.154404 -2.16012e-20)
(30.0178 -0.155209 2.2091e-20)
(30.0179 -0.156021 -1.06545e-20)
(30.018 -0.15684 -1.32154e-20)
(30.018 -0.157667 2.72289e-20)
(30.0181 -0.158502 -2.65745e-20)
(30.0182 -0.159345 2.56125e-20)
(30.0183 -0.160195 -9.27975e-21)
(30.0184 -0.161052 3.62666e-22)
(30.0184 -0.161916 -2.75826e-20)
(30.0185 -0.162788 3.18858e-20)
(30.0186 -0.163667 -9.76777e-21)
(30.0187 -0.164553 -9.50288e-21)
(30.0188 -0.165446 -8.68336e-22)
(30.0189 -0.166347 1.31245e-20)
(30.0189 -0.167254 -1.04747e-20)
(30.019 -0.168168 -3.8445e-21)
(30.0191 -0.169088 2.05666e-20)
(30.0192 -0.170015 -8.89804e-21)
(30.0193 -0.170948 3.94483e-21)
(30.0194 -0.171887 -9.14886e-21)
(30.0195 -0.172832 1.33214e-20)
(30.0196 -0.173783 -1.17723e-20)
(30.0197 -0.17474 8.02309e-21)
(30.0198 -0.175702 -1.94285e-20)
(30.0198 -0.176669 3.03924e-21)
(30.0199 -0.177642 1.46533e-20)
(30.02 -0.178619 -3.79135e-21)
(30.0201 -0.179601 1.10684e-20)
(30.0202 -0.180588 -1.17902e-20)
(30.0203 -0.181578 4.28508e-21)
(30.0204 -0.182573 -5.14871e-21)
(30.0205 -0.18357 3.44592e-21)
(30.0206 -0.184572 2.90784e-22)
(30.0207 -0.185576 4.30786e-21)
(30.0208 -0.186583 4.13777e-21)
(30.0209 -0.187592 -4.27346e-21)
(30.0211 -0.188603 -1.65077e-20)
(30.0212 -0.189617 1.85067e-20)
(30.0213 -0.190632 -7.99665e-21)
(30.0214 -0.191648 -6.51367e-21)
(30.0215 -0.192664 2.11645e-20)
(30.0216 -0.193681 -2.41903e-20)
(30.0217 -0.194698 9.45767e-21)
(30.0218 -0.195714 -1.32961e-20)
(30.0219 -0.196729 2.41094e-20)
(30.022 -0.197744 -1.60817e-20)
(30.0221 -0.198757 4.34296e-21)
(30.0223 -0.199768 1.1561e-20)
(30.0224 -0.200775 -1.43307e-20)
(30.0225 -0.20178 -2.16667e-21)
(30.0226 -0.202783 1.15962e-20)
(30.0227 -0.203782 -4.05702e-21)
(30.0228 -0.204776 -7.98845e-21)
(30.0229 -0.205765 1.44341e-20)
(30.023 -0.206748 4.12401e-21)
(30.0232 -0.207723 4.41772e-21)
(30.0233 -0.208694 -1.85071e-20)
(30.0234 -0.209661 7.37024e-21)
(30.0235 -0.210623 -1.95665e-20)
(30.0236 -0.211579 2.26265e-20)
(30.0237 -0.212524 -3.07761e-20)
(30.0238 -0.213456 2.40085e-20)
(30.0239 -0.214375 1.28785e-21)
(30.024 -0.215285 -2.39603e-20)
(30.0241 -0.216191 3.42138e-20)
(30.0243 -0.217093 -1.14358e-20)
(30.0244 -0.217988 -1.61401e-20)
(30.0245 -0.218871 2.03283e-21)
(30.0246 -0.219734 6.46533e-21)
(30.0247 -0.220578 -4.1787e-21)
(30.0248 -0.221407 1.23097e-20)
(30.0249 -0.222227 3.62798e-21)
(30.025 -0.223043 -1.56357e-20)
(30.0251 -0.223853 2.27552e-21)
(30.0252 -0.22465 2.18805e-21)
(30.0253 -0.225428 1.01698e-21)
(30.0254 -0.226184 3.24231e-21)
(30.0255 -0.22692 -9.27899e-21)
(30.0255 -0.227641 1.18676e-20)
(30.0256 -0.228351 -5.16654e-21)
(30.0257 -0.229052 5.28266e-22)
(30.0258 -0.22974 7.61414e-21)
(30.0259 -0.230413 -3.20352e-21)
(30.026 -0.231067 -4.67723e-21)
(30.0261 -0.231702 -3.24571e-21)
(30.0261 -0.232321 5.76425e-21)
(30.0262 -0.232924 -4.29958e-21)
(30.0263 -0.23351 8.78748e-21)
(30.0264 -0.234078 -6.16652e-22)
(30.0264 -0.234628 7.64003e-22)
(30.0265 -0.235161 -5.13411e-21)
(30.0266 -0.23568 -1.05814e-21)
(30.0266 -0.236188 -1.84329e-21)
(30.0267 -0.236683 2.88483e-21)
(30.0267 -0.237164 -1.95035e-21)
(30.0268 -0.237625 3.89011e-21)
(30.0269 -0.238065 -2.34033e-21)
(30.0269 -0.238481 -4.95328e-24)
(30.027 -0.238877 1.59694e-21)
(30.027 -0.239258 -2.61691e-21)
(30.027 -0.239629 8.3908e-22)
(30.0271 -0.239994 1.83279e-22)
(30.0271 -0.240355 2.0212e-22)
(30.0272 -0.240704 1.17629e-21)
(30.0272 -0.241034 -2.53262e-21)
(30.0273 -0.241336 2.59559e-21)
(30.0273 -0.241608 -1.86696e-21)
(30.0273 -0.241856 -7.532e-22)
(30.0273 -0.242095 5.11949e-22)
(30.0274 -0.242337 1.53221e-21)
(30.0274 -0.242589 -3.13427e-22)
(30.0274 -0.242843 -1.10173e-21)
(30.0275 -0.243081 5.29241e-22)
(30.0275 -0.243284 6.25005e-22)
(30.0275 -0.243445 -7.98971e-22)
(30.0275 -0.243576 4.66957e-22)
(30.0276 -0.243701 -1.21922e-22)
(30.0276 -0.243844 -2.20063e-22)
(30.0276 -0.244014 2.50793e-24)
(30.0276 -0.244193 9.97364e-23)
(30.0276 -0.24435 1.12937e-22)
(30.0277 -0.244455 -1.05695e-22)
(30.0277 -0.244502 2.27755e-23)
(30.0277 -0.244519 2.34063e-24)
(30.0277 -0.244553 1.16858e-23)
(30.0277 -0.244637 3.92052e-23)
(30.0277 -0.244768 -3.56461e-23)
(30.0277 -0.244899 1.69932e-23)
(30.0277 -0.244971 -1.77492e-23)
(30.0277 -0.244936 1.88883e-24)
(30.0277 -0.244846 6.25037e-25)
(30.0164 -0.131602 -3.12833e-21)
(30.0164 -0.132099 2.74679e-21)
(30.0165 -0.132603 -3.35594e-20)
(30.0166 -0.133113 5.2208e-21)
(30.0166 -0.133631 6.0781e-21)
(30.0167 -0.134155 2.47086e-20)
(30.0168 -0.134687 -3.03847e-20)
(30.0168 -0.135226 2.98703e-20)
(30.0169 -0.135773 -4.10354e-20)
(30.017 -0.136327 4.61134e-21)
(30.0171 -0.136888 1.76625e-20)
(30.0171 -0.137457 -1.71447e-20)
(30.0172 -0.138034 -1.42111e-21)
(30.0173 -0.138618 1.63392e-20)
(30.0174 -0.13921 6.81823e-22)
(30.0174 -0.139809 -6.19203e-21)
(30.0175 -0.140416 1.80496e-20)
(30.0176 -0.141031 -1.30308e-20)
(30.0177 -0.141654 3.9761e-21)
(30.0178 -0.142285 3.59738e-21)
(30.0179 -0.142924 -4.14083e-21)
(30.0179 -0.143571 -3.25928e-21)
(30.018 -0.144226 2.8498e-20)
(30.0181 -0.14489 -3.84307e-20)
(30.0182 -0.145561 -5.96013e-21)
(30.0183 -0.14624 3.05307e-20)
(30.0184 -0.146928 -1.69216e-20)
(30.0185 -0.147624 1.10516e-20)
(30.0186 -0.148328 -1.98273e-20)
(30.0187 -0.14904 1.1691e-20)
(30.0188 -0.149761 -1.45068e-20)
(30.0189 -0.15049 2.96688e-20)
(30.019 -0.151228 -2.39306e-20)
(30.0191 -0.151973 -1.81369e-20)
(30.0192 -0.152727 6.93978e-20)
(30.0193 -0.15349 2.97942e-21)
(30.0194 -0.15426 -3.25869e-20)
(30.0195 -0.155039 1.89078e-21)
(30.0196 -0.155826 1.26062e-20)
(30.0197 -0.156622 -7.17016e-21)
(30.0198 -0.157425 -2.05335e-20)
(30.0199 -0.158237 1.30986e-20)
(30.02 -0.159058 1.54223e-20)
(30.0202 -0.159886 -2.16372e-20)
(30.0203 -0.160722 -1.58178e-20)
(30.0204 -0.161566 3.38315e-20)
(30.0205 -0.162418 -5.81188e-20)
(30.0206 -0.163278 6.98392e-20)
(30.0208 -0.164146 -3.89141e-20)
(30.0209 -0.165021 -2.06491e-20)
(30.021 -0.165904 6.77222e-21)
(30.0212 -0.166795 4.78147e-20)
(30.0213 -0.167693 -4.23184e-22)
(30.0214 -0.168598 3.83024e-21)
(30.0216 -0.16951 -4.31246e-20)
(30.0217 -0.170429 -1.62522e-20)
(30.0218 -0.171356 2.80567e-20)
(30.022 -0.172289 -1.35666e-20)
(30.0221 -0.173228 5.03315e-21)
(30.0223 -0.174173 -2.10406e-21)
(30.0224 -0.175125 1.2444e-21)
(30.0226 -0.176083 1.2739e-20)
(30.0227 -0.177046 3.57684e-20)
(30.0229 -0.178016 -5.02984e-20)
(30.023 -0.17899 2.45988e-20)
(30.0232 -0.17997 -3.80917e-20)
(30.0234 -0.180955 -1.25387e-20)
(30.0235 -0.181943 4.05192e-20)
(30.0237 -0.182937 1.51711e-20)
(30.0239 -0.183934 -1.01983e-20)
(30.024 -0.184934 -2.36945e-20)
(30.0242 -0.185938 3.56173e-20)
(30.0244 -0.186946 -1.62432e-20)
(30.0245 -0.187957 1.3048e-20)
(30.0247 -0.188971 -2.33957e-20)
(30.0249 -0.189986 2.06674e-20)
(30.0251 -0.191003 1.23504e-20)
(30.0253 -0.19202 9.61352e-22)
(30.0254 -0.193038 -3.98297e-20)
(30.0256 -0.194056 2.83034e-20)
(30.0258 -0.195077 -4.46049e-20)
(30.026 -0.196098 3.00371e-20)
(30.0262 -0.19712 -1.33611e-20)
(30.0264 -0.198139 1.66123e-20)
(30.0266 -0.199155 -1.375e-20)
(30.0268 -0.200167 2.67013e-20)
(30.027 -0.201178 -2.00529e-20)
(30.0272 -0.202188 5.64237e-21)
(30.0274 -0.203196 -1.67227e-21)
(30.0276 -0.204201 -1.64083e-20)
(30.0278 -0.2052 3.22335e-20)
(30.0279 -0.206192 -1.4319e-20)
(30.0281 -0.207179 -9.19576e-21)
(30.0283 -0.208161 -6.87066e-21)
(30.0285 -0.209141 -2.87081e-21)
(30.0287 -0.210115 7.53679e-21)
(30.0289 -0.211082 1.60888e-20)
(30.0291 -0.212036 8.0942e-21)
(30.0293 -0.212978 -2.71352e-20)
(30.0295 -0.213911 -7.9275e-21)
(30.0297 -0.214839 8.16903e-21)
(30.0299 -0.215765 1.56108e-20)
(30.0301 -0.216686 3.74203e-21)
(30.0303 -0.217595 -3.93159e-21)
(30.0305 -0.218486 -9.96132e-21)
(30.0307 -0.219356 -4.24002e-21)
(30.0309 -0.220212 6.44127e-21)
(30.031 -0.221059 1.60134e-20)
(30.0312 -0.221902 -1.53849e-20)
(30.0314 -0.222742 4.37617e-21)
(30.0316 -0.22357 -1.10674e-20)
(30.0318 -0.22438 1.72586e-20)
(30.0319 -0.225166 -8.00588e-21)
(30.0321 -0.225931 -2.95289e-21)
(30.0323 -0.22668 1.34763e-20)
(30.0324 -0.227421 -1.57092e-20)
(30.0326 -0.228153 -4.83727e-22)
(30.0328 -0.228874 4.9243e-21)
(30.0329 -0.229578 8.11778e-21)
(30.0331 -0.230263 -7.10852e-21)
(30.0332 -0.230929 -6.207e-21)
(30.0334 -0.231577 9.90813e-21)
(30.0335 -0.23221 -5.38049e-21)
(30.0336 -0.232827 1.16632e-21)
(30.0338 -0.233427 7.72718e-22)
(30.0339 -0.234007 -6.93548e-21)
(30.034 -0.23457 7.89282e-22)
(30.0342 -0.235118 -1.55381e-22)
(30.0343 -0.235653 9.84439e-21)
(30.0344 -0.236176 -3.94457e-21)
(30.0345 -0.236684 1.76097e-21)
(30.0346 -0.237174 -2.40446e-21)
(30.0347 -0.237641 1.95661e-21)
(30.0348 -0.238085 -2.84969e-21)
(30.0349 -0.238508 5.9953e-21)
(30.035 -0.238913 -6.71272e-21)
(30.0351 -0.239306 4.34165e-21)
(30.0352 -0.239693 -3.80595e-21)
(30.0353 -0.240075 6.34253e-23)
(30.0353 -0.240446 4.5379e-21)
(30.0354 -0.2408 -8.7337e-22)
(30.0355 -0.241127 -1.66422e-21)
(30.0355 -0.241421 1.70311e-21)
(30.0356 -0.241689 5.82562e-22)
(30.0357 -0.241943 -3.07941e-21)
(30.0357 -0.242198 -2.82133e-22)
(30.0358 -0.242462 3.50354e-21)
(30.0358 -0.242732 -3.17934e-21)
(30.0359 -0.24299 1.99081e-21)
(30.0359 -0.243215 8.05559e-22)
(30.0359 -0.243395 -2.51068e-21)
(30.036 -0.243539 6.72479e-22)
(30.036 -0.243669 -5.97264e-22)
(30.036 -0.243815 4.88453e-22)
(30.0361 -0.243989 2.99009e-22)
(30.0361 -0.244181 -3.80019e-22)
(30.0361 -0.244356 8.11366e-22)
(30.0361 -0.24448 -7.40779e-22)
(30.0362 -0.244541 3.04425e-22)
(30.0362 -0.244563 -6.92361e-23)
(30.0362 -0.244593 1.86082e-22)
(30.0362 -0.244671 -3.7344e-23)
(30.0362 -0.244802 -6.99232e-23)
(30.0362 -0.244942 5.56659e-23)
(30.0362 -0.245027 -5.30336e-23)
(30.0362 -0.245002 7.71922e-24)
(30.0362 -0.244911 -4.79712e-24)
(30.0065 -0.131687 -2.34948e-20)
(30.0066 -0.13219 -9.1598e-21)
(30.0067 -0.1327 -1.00843e-20)
(30.0068 -0.133216 2.32656e-20)
(30.0068 -0.133739 -2.90234e-20)
(30.0069 -0.134269 5.34881e-20)
(30.007 -0.134807 -7.47769e-21)
(30.0071 -0.135351 2.04558e-21)
(30.0072 -0.135903 3.25921e-22)
(30.0073 -0.136463 5.32952e-21)
(30.0074 -0.13703 -3.87236e-20)
(30.0075 -0.137604 1.42023e-20)
(30.0076 -0.138186 1.74644e-20)
(30.0078 -0.138776 1.71803e-20)
(30.0079 -0.139373 -2.20064e-20)
(30.008 -0.139977 1.27312e-20)
(30.0081 -0.14059 -2.11198e-21)
(30.0082 -0.14121 1.43393e-21)
(30.0083 -0.141838 -1.88337e-20)
(30.0084 -0.142475 -3.16995e-21)
(30.0086 -0.143119 -1.07094e-20)
(30.0087 -0.143771 -1.14684e-20)
(30.0088 -0.144432 1.8559e-20)
(30.0089 -0.1451 5.26945e-21)
(30.0091 -0.145776 -2.68864e-20)
(30.0092 -0.146461 4.6699e-20)
(30.0093 -0.147154 -3.76606e-20)
(30.0095 -0.147855 6.78296e-21)
(30.0096 -0.148564 3.30317e-20)
(30.0097 -0.149281 1.69011e-21)
(30.0099 -0.150007 -4.4419e-20)
(30.01 -0.150741 3.26246e-20)
(30.0102 -0.151484 -3.73113e-20)
(30.0103 -0.152234 -7.59868e-21)
(30.0105 -0.152993 3.27878e-20)
(30.0106 -0.153761 -6.99179e-21)
(30.0108 -0.154536 -1.10145e-20)
(30.0109 -0.15532 2.07305e-20)
(30.0111 -0.156112 5.82985e-21)
(30.0113 -0.156913 1.68587e-20)
(30.0114 -0.157721 -8.49127e-20)
(30.0116 -0.158538 1.72398e-20)
(30.0118 -0.159363 8.97363e-20)
(30.0119 -0.160196 -1.02038e-19)
(30.0121 -0.161037 8.7137e-22)
(30.0123 -0.161886 5.65432e-20)
(30.0125 -0.162743 4.66439e-20)
(30.0127 -0.163608 -2.84122e-20)
(30.0129 -0.16448 1.36068e-20)
(30.0131 -0.16536 -2.3443e-20)
(30.0133 -0.166248 5.39869e-21)
(30.0135 -0.167143 -2.48872e-20)
(30.0137 -0.168046 5.02129e-20)
(30.0139 -0.168956 8.07051e-21)
(30.0141 -0.169873 -4.59362e-20)
(30.0143 -0.170796 -4.26225e-20)
(30.0145 -0.171727 9.89343e-21)
(30.0147 -0.172664 7.41371e-20)
(30.0149 -0.173607 -3.38019e-20)
(30.0152 -0.174557 -3.40795e-20)
(30.0154 -0.175513 -1.92925e-20)
(30.0156 -0.176475 3.72296e-20)
(30.0159 -0.177443 6.04458e-20)
(30.0161 -0.178416 -8.49873e-20)
(30.0163 -0.179395 3.64061e-20)
(30.0166 -0.180378 1.41703e-20)
(30.0168 -0.181366 2.63865e-20)
(30.0171 -0.182358 -3.85882e-20)
(30.0173 -0.183354 1.11518e-20)
(30.0176 -0.184354 -1.34805e-20)
(30.0178 -0.185358 4.72536e-20)
(30.0181 -0.186366 -1.63732e-21)
(30.0184 -0.187378 -4.52207e-20)
(30.0186 -0.188392 9.64899e-21)
(30.0189 -0.189408 -1.60006e-21)
(30.0192 -0.190424 1.01481e-20)
(30.0195 -0.191442 -2.49632e-20)
(30.0197 -0.192461 -1.58206e-20)
(30.02 -0.193481 -2.66204e-21)
(30.0203 -0.194503 1.58237e-20)
(30.0206 -0.195527 -2.15756e-20)
(30.0209 -0.19655 5.99188e-20)
(30.0212 -0.197572 -2.84183e-21)
(30.0215 -0.198589 -3.98722e-20)
(30.0218 -0.199603 4.90906e-21)
(30.0221 -0.200616 2.51065e-20)
(30.0224 -0.201628 -1.28528e-20)
(30.0227 -0.202641 -4.65399e-20)
(30.023 -0.203651 5.7624e-20)
(30.0233 -0.204657 -1.88823e-20)
(30.0236 -0.205654 -1.6311e-20)
(30.0239 -0.206643 -1.41248e-20)
(30.0242 -0.207626 8.58633e-21)
(30.0245 -0.208606 5.52127e-20)
(30.0248 -0.209585 -2.38776e-20)
(30.0251 -0.210559 -1.05929e-20)
(30.0254 -0.211525 3.53492e-20)
(30.0257 -0.212478 -3.65639e-20)
(30.026 -0.213417 3.02529e-20)
(30.0263 -0.214346 -2.99205e-20)
(30.0266 -0.21527 -5.73197e-21)
(30.0269 -0.216193 -5.56908e-22)
(30.0272 -0.217111 4.05275e-21)
(30.0275 -0.218016 1.22768e-20)
(30.0278 -0.218903 5.3377e-21)
(30.0281 -0.219769 -3.79099e-20)
(30.0284 -0.22062 1.87393e-20)
(30.0287 -0.221463 2.85847e-20)
(30.029 -0.222302 -5.55115e-21)
(30.0293 -0.223137 -3.65886e-20)
(30.0295 -0.22396 3.93941e-20)
(30.0298 -0.224763 -1.99467e-20)
(30.0301 -0.225544 1.93629e-20)
(30.0304 -0.226303 -2.4788e-21)
(30.0306 -0.227048 -2.83447e-20)
(30.0309 -0.227783 4.39066e-21)
(30.0311 -0.228509 4.32105e-21)
(30.0314 -0.229223 5.82392e-21)
(30.0316 -0.229921 -1.53029e-21)
(30.0319 -0.230599 -7.91985e-21)
(30.0321 -0.231258 -3.59083e-21)
(30.0323 -0.231901 -7.65567e-21)
(30.0326 -0.232528 2.16678e-20)
(30.0328 -0.233139 4.08045e-21)
(30.033 -0.233731 -1.57054e-20)
(30.0332 -0.234304 1.14266e-21)
(30.0334 -0.23486 3.32463e-22)
(30.0336 -0.235401 -7.1191e-21)
(30.0338 -0.23593 4.98481e-21)
(30.034 -0.236446 6.0759e-21)
(30.0342 -0.236946 6.93827e-21)
(30.0343 -0.237428 -6.28103e-21)
(30.0345 -0.237888 1.90158e-21)
(30.0347 -0.238325 -6.50423e-21)
(30.0348 -0.238742 4.92462e-21)
(30.035 -0.239142 -1.03187e-21)
(30.0351 -0.23953 1.23211e-21)
(30.0353 -0.23991 -6.82542e-22)
(30.0354 -0.240282 1.56072e-21)
(30.0355 -0.240645 -2.40126e-21)
(30.0357 -0.24099 -3.82462e-23)
(30.0358 -0.24131 1.44284e-21)
(30.0359 -0.2416 1.54999e-21)
(30.036 -0.241864 7.8921e-22)
(30.0361 -0.242113 -6.11885e-21)
(30.0362 -0.242363 1.44191e-21)
(30.0363 -0.242621 4.25699e-21)
(30.0364 -0.242884 -3.09536e-21)
(30.0364 -0.243133 -4.61417e-22)
(30.0365 -0.243349 1.34295e-21)
(30.0366 -0.243522 -3.27917e-21)
(30.0366 -0.24366 2.6136e-21)
(30.0367 -0.243788 -6.61501e-22)
(30.0368 -0.243935 1.01443e-21)
(30.0368 -0.244109 -5.87709e-22)
(30.0369 -0.244296 2.64736e-23)
(30.037 -0.24446 4.04795e-22)
(30.037 -0.24457 -4.45638e-22)
(30.0371 -0.244619 4.324e-22)
(30.0371 -0.244637 -6.49037e-22)
(30.0371 -0.244672 8.20142e-23)
(30.0372 -0.24476 2.0948e-22)
(30.0372 -0.244894 -4.08275e-23)
(30.0373 -0.245024 7.79596e-24)
(30.0373 -0.245088 4.93899e-23)
(30.0373 -0.245041 -1.893e-23)
(30.0374 -0.244948 6.71849e-24)
(30.0021 -0.133208 7.51566e-21)
(30.0022 -0.13368 -1.15297e-20)
(30.0023 -0.134159 2.78197e-20)
(30.0024 -0.134644 -2.939e-20)
(30.0025 -0.135136 6.20196e-20)
(30.0026 -0.135635 -8.80485e-20)
(30.0027 -0.136141 4.80891e-20)
(30.0028 -0.136655 3.58418e-20)
(30.003 -0.137176 1.6624e-20)
(30.0031 -0.137705 -4.4833e-20)
(30.0032 -0.138241 3.75207e-20)
(30.0033 -0.138784 -3.46581e-20)
(30.0034 -0.139335 2.0694e-20)
(30.0036 -0.139894 -1.85471e-20)
(30.0037 -0.14046 3.788e-21)
(30.0038 -0.141035 -2.71981e-20)
(30.004 -0.141617 -1.35644e-20)
(30.0041 -0.142207 6.14784e-20)
(30.0042 -0.142805 -1.78852e-20)
(30.0044 -0.143411 -5.36168e-20)
(30.0045 -0.144025 -1.819e-20)
(30.0047 -0.144647 2.24941e-20)
(30.0048 -0.145278 -2.50115e-20)
(30.0049 -0.145917 4.90504e-20)
(30.0051 -0.146564 -5.37444e-21)
(30.0053 -0.147219 1.24027e-20)
(30.0054 -0.147883 -3.25492e-20)
(30.0056 -0.148556 2.48718e-20)
(30.0057 -0.149236 2.39141e-20)
(30.0059 -0.149926 2.09326e-20)
(30.0061 -0.150623 -3.51928e-20)
(30.0062 -0.15133 -3.22764e-21)
(30.0064 -0.152045 -5.05996e-20)
(30.0066 -0.152768 8.41185e-20)
(30.0068 -0.1535 -6.94057e-20)
(30.007 -0.154241 5.06406e-21)
(30.0071 -0.15499 2.08425e-20)
(30.0073 -0.155748 -2.83697e-20)
(30.0075 -0.156515 7.34542e-20)
(30.0077 -0.15729 -8.00272e-20)
(30.0079 -0.158073 8.89391e-20)
(30.0081 -0.158865 -7.57815e-20)
(30.0083 -0.159666 3.34514e-20)
(30.0085 -0.160476 2.68456e-20)
(30.0088 -0.161293 -4.25709e-20)
(30.009 -0.162119 1.90848e-20)
(30.0092 -0.162953 -2.60908e-20)
(30.0094 -0.163795 2.06853e-20)
(30.0097 -0.164645 1.74869e-20)
(30.0099 -0.165504 -1.08267e-20)
(30.0101 -0.166371 -6.67162e-21)
(30.0104 -0.167245 7.00258e-20)
(30.0106 -0.168128 -1.03681e-19)
(30.0109 -0.169017 6.68662e-20)
(30.0111 -0.169914 2.14646e-20)
(30.0114 -0.170819 -9.42239e-20)
(30.0117 -0.171731 2.96903e-20)
(30.0119 -0.17265 -2.61855e-20)
(30.0122 -0.173576 9.10103e-20)
(30.0125 -0.174509 -7.42554e-20)
(30.0128 -0.175448 1.86285e-20)
(30.013 -0.176393 -1.72049e-20)
(30.0133 -0.177345 9.01703e-20)
(30.0136 -0.178303 -4.06426e-20)
(30.0139 -0.179267 4.25797e-20)
(30.0142 -0.180235 -1.00483e-19)
(30.0145 -0.181209 -4.33142e-20)
(30.0148 -0.182187 3.07683e-20)
(30.0152 -0.183171 3.428e-20)
(30.0155 -0.184159 3.24397e-20)
(30.0158 -0.185151 2.3981e-20)
(30.0161 -0.186148 -1.12256e-19)
(30.0165 -0.187147 6.42386e-20)
(30.0168 -0.188149 -3.61162e-20)
(30.0171 -0.189154 3.6586e-20)
(30.0175 -0.19016 3.87439e-20)
(30.0178 -0.191169 -9.59578e-20)
(30.0182 -0.192181 1.1834e-19)
(30.0185 -0.193195 -3.61824e-20)
(30.0189 -0.19421 -3.75918e-20)
(30.0192 -0.195225 4.90218e-20)
(30.0196 -0.196239 -5.75231e-20)
(30.02 -0.197251 -2.44166e-20)
(30.0203 -0.198262 2.37905e-20)
(30.0207 -0.199271 4.99555e-20)
(30.0211 -0.200281 -2.71667e-20)
(30.0215 -0.201291 1.47117e-20)
(30.0218 -0.202301 -2.13107e-20)
(30.0222 -0.203306 1.40823e-21)
(30.0226 -0.204306 -4.54132e-20)
(30.023 -0.205297 5.79182e-20)
(30.0234 -0.206282 -1.87563e-20)
(30.0238 -0.207263 5.57481e-20)
(30.0241 -0.208244 -4.04097e-20)
(30.0245 -0.209223 -2.5331e-20)
(30.0249 -0.210198 9.35289e-22)
(30.0253 -0.211163 -7.6476e-21)
(30.0257 -0.212114 -1.28981e-20)
(30.0261 -0.213051 5.95506e-21)
(30.0265 -0.21398 -1.05395e-20)
(30.0268 -0.214906 2.1218e-20)
(30.0272 -0.215831 3.62599e-20)
(30.0276 -0.216752 -1.99599e-20)
(30.028 -0.21766 4.06807e-20)
(30.0284 -0.218548 -2.5615e-20)
(30.0287 -0.219416 1.28044e-20)
(30.0291 -0.22027 -2.49e-20)
(30.0295 -0.221116 -2.19464e-21)
(30.0298 -0.22196 2.08488e-20)
(30.0302 -0.222799 -4.27153e-20)
(30.0305 -0.223628 3.46256e-20)
(30.0309 -0.224436 1.23905e-20)
(30.0312 -0.225222 -4.30295e-20)
(30.0316 -0.225986 3.32767e-20)
(30.0319 -0.226736 -1.41247e-20)
(30.0322 -0.227477 -1.07614e-20)
(30.0326 -0.228209 -8.28094e-21)
(30.0329 -0.228929 3.36191e-21)
(30.0332 -0.229634 -7.93105e-21)
(30.0335 -0.23032 1.63433e-20)
(30.0338 -0.230989 -5.38432e-21)
(30.0341 -0.23164 1.68225e-20)
(30.0343 -0.232275 -2.24746e-20)
(30.0346 -0.232892 1.33766e-20)
(30.0349 -0.23349 1.28281e-20)
(30.0351 -0.23407 -1.94619e-20)
(30.0354 -0.234635 8.70021e-21)
(30.0356 -0.235186 -1.01159e-21)
(30.0359 -0.235725 3.61432e-22)
(30.0361 -0.236252 -1.06766e-20)
(30.0363 -0.236762 2.69714e-20)
(30.0365 -0.237252 -2.27162e-20)
(30.0367 -0.237719 1.10443e-20)
(30.0369 -0.238164 1.51071e-21)
(30.0371 -0.238589 -3.76639e-22)
(30.0373 -0.238998 -8.69661e-22)
(30.0374 -0.239397 -8.0985e-21)
(30.0376 -0.239788 7.07655e-21)
(30.0377 -0.240171 2.31706e-21)
(30.0379 -0.240542 -6.99826e-21)
(30.038 -0.240895 -2.364e-22)
(30.0382 -0.241221 1.93492e-21)
(30.0383 -0.241517 3.51065e-21)
(30.0384 -0.241789 1.06837e-22)
(30.0385 -0.242049 -1.94352e-21)
(30.0386 -0.242311 1.33368e-22)
(30.0387 -0.242581 -2.87202e-22)
(30.0388 -0.242851 -2.63034e-21)
(30.0389 -0.243104 8.35109e-21)
(30.0389 -0.243321 -3.8512e-21)
(30.039 -0.243495 -1.15053e-21)
(30.039 -0.24364 5.84644e-22)
(30.0391 -0.243782 1.75095e-21)
(30.0391 -0.243944 -9.80025e-23)
(30.0392 -0.244131 -1.46469e-21)
(30.0392 -0.244322 -3.00341e-22)
(30.0393 -0.244482 1.33659e-21)
(30.0393 -0.244584 -4.54569e-22)
(30.0393 -0.244632 1.33442e-22)
(30.0393 -0.244659 -1.85213e-22)
(30.0393 -0.244713 -8.53011e-23)
(30.0393 -0.244821 2.0064e-22)
(30.0394 -0.244964 -1.41218e-22)
(30.0394 -0.245087 -5.70673e-23)
(30.0394 -0.245132 1.05478e-22)
(30.0394 -0.245073 -1.82741e-23)
(30.0393 -0.244993 -1.26377e-23)
(29.9945 -0.13375 2.60908e-20)
(29.9946 -0.134226 -3.60407e-20)
(29.9947 -0.134708 -1.40615e-20)
(29.9949 -0.135196 3.66396e-20)
(29.995 -0.135692 -1.32279e-20)
(29.9951 -0.136195 1.32105e-20)
(29.9952 -0.136705 -3.47484e-20)
(29.9953 -0.137223 1.78891e-20)
(29.9955 -0.137748 3.10055e-20)
(29.9956 -0.13828 -5.21812e-20)
(29.9957 -0.13882 8.58875e-20)
(29.9959 -0.139368 -8.51899e-20)
(29.996 -0.139924 5.02691e-20)
(29.9961 -0.140487 -3.78582e-20)
(29.9963 -0.141058 3.99567e-22)
(29.9964 -0.141636 5.85521e-20)
(29.9966 -0.142223 -1.13171e-19)
(29.9967 -0.142818 6.05518e-20)
(29.9969 -0.14342 5.9255e-21)
(29.9971 -0.144032 -1.34308e-21)
(29.9972 -0.144651 -3.06034e-20)
(29.9974 -0.145278 -1.57527e-20)
(29.9976 -0.145914 -3.16069e-20)
(29.9977 -0.146558 9.20634e-20)
(29.9979 -0.147211 -7.0482e-21)
(29.9981 -0.147871 3.49668e-20)
(29.9983 -0.14854 -5.45414e-20)
(29.9985 -0.149218 1.63842e-20)
(29.9986 -0.149904 -3.45825e-20)
(29.9988 -0.150599 4.05631e-20)
(29.999 -0.151303 4.07605e-20)
(29.9992 -0.152015 -5.62723e-20)
(29.9994 -0.152736 -2.75033e-20)
(29.9997 -0.153465 4.36309e-20)
(29.9999 -0.154203 -8.69692e-20)
(30.0001 -0.15495 1.19851e-19)
(30.0003 -0.155705 -4.73973e-20)
(30.0005 -0.156468 4.53418e-20)
(30.0008 -0.157241 9.48503e-21)
(30.001 -0.158022 -5.5368e-20)
(30.0013 -0.158812 8.42826e-21)
(30.0015 -0.15961 1.2082e-20)
(30.0018 -0.160417 -1.31662e-21)
(30.002 -0.161232 -6.9519e-20)
(30.0023 -0.162056 7.43575e-20)
(30.0025 -0.162887 -1.40651e-20)
(30.0028 -0.163727 7.34309e-21)
(30.0031 -0.164576 1.54605e-20)
(30.0034 -0.165432 -3.6529e-20)
(30.0037 -0.166297 4.94338e-20)
(30.004 -0.16717 -3.66111e-20)
(30.0043 -0.16805 -1.14713e-20)
(30.0046 -0.168938 3.4025e-20)
(30.0049 -0.169833 1.33931e-20)
(30.0052 -0.170736 -3.25045e-20)
(30.0055 -0.171647 -1.74804e-20)
(30.0058 -0.172564 -4.97752e-20)
(30.0062 -0.173489 3.40125e-20)
(30.0065 -0.17442 -5.56398e-20)
(30.0068 -0.175357 9.70964e-20)
(30.0072 -0.176302 7.55006e-21)
(30.0076 -0.177252 -1.19042e-19)
(30.0079 -0.178209 1.37916e-19)
(30.0083 -0.179171 -1.07226e-19)
(30.0086 -0.180138 1.50094e-20)
(30.009 -0.18111 6.08935e-20)
(30.0094 -0.182088 -6.12695e-20)
(30.0098 -0.183071 7.3933e-20)
(30.0102 -0.184058 -1.20592e-19)
(30.0106 -0.18505 6.41858e-20)
(30.011 -0.186045 5.39892e-20)
(30.0114 -0.187043 -5.69779e-20)
(30.0118 -0.188043 1.13859e-19)
(30.0122 -0.189046 -3.07637e-20)
(30.0127 -0.190052 2.10237e-20)
(30.0131 -0.191062 -1.20864e-19)
(30.0135 -0.192074 2.30595e-20)
(30.014 -0.193088 -4.48036e-20)
(30.0144 -0.194101 9.28743e-20)
(30.0149 -0.195113 -1.02599e-19)
(30.0153 -0.196125 9.70678e-20)
(30.0158 -0.197136 -4.52904e-20)
(30.0163 -0.198147 8.29217e-20)
(30.0167 -0.199159 -1.22623e-19)
(30.0172 -0.200169 9.20624e-20)
(30.0177 -0.201177 -4.44076e-21)
(30.0181 -0.202183 -1.05759e-19)
(30.0186 -0.203186 1.55885e-19)
(30.0191 -0.204185 -8.32609e-20)
(30.0196 -0.205178 -1.71874e-20)
(30.0201 -0.206165 4.8325e-20)
(30.0206 -0.207146 -2.29776e-20)
(30.0211 -0.208123 -1.53955e-20)
(30.0216 -0.209098 5.97303e-20)
(30.022 -0.21007 -6.68938e-20)
(30.0225 -0.211036 2.04603e-21)
(30.023 -0.211991 -3.29579e-20)
(30.0235 -0.212933 6.62542e-20)
(30.024 -0.213861 3.71769e-21)
(30.0245 -0.214781 -1.17501e-20)
(30.025 -0.215698 -5.81155e-21)
(30.0255 -0.216613 -3.08071e-20)
(30.026 -0.217523 7.88718e-21)
(30.0265 -0.218419 3.3237e-20)
(30.0269 -0.219296 -5.98315e-20)
(30.0274 -0.220152 4.73055e-20)
(30.0279 -0.220992 1.61935e-20)
(30.0284 -0.221825 -2.66692e-20)
(30.0288 -0.222656 3.57466e-20)
(30.0293 -0.223483 -1.06629e-21)
(30.0297 -0.224299 -3.06966e-20)
(30.0302 -0.225094 2.06182e-20)
(30.0306 -0.225866 1.3845e-20)
(30.0311 -0.226615 -1.98608e-20)
(30.0315 -0.22735 4.53968e-21)
(30.0319 -0.228075 -9.26499e-21)
(30.0323 -0.228792 -5.61134e-21)
(30.0328 -0.229498 -2.72735e-20)
(30.0332 -0.230189 5.26121e-20)
(30.0336 -0.230862 2.51752e-21)
(30.0339 -0.231516 -2.42573e-20)
(30.0343 -0.232152 4.38042e-21)
(30.0347 -0.23277 -2.10139e-20)
(30.035 -0.233371 2.38421e-20)
(30.0354 -0.233953 1.9808e-20)
(30.0357 -0.234518 -1.98779e-20)
(30.036 -0.235068 1.62431e-20)
(30.0364 -0.235607 -5.73237e-21)
(30.0367 -0.236134 -1.99763e-20)
(30.037 -0.236648 -5.51099e-21)
(30.0373 -0.237143 -1.03661e-21)
(30.0375 -0.237617 3.4317e-21)
(30.0378 -0.238067 2.00079e-20)
(30.0381 -0.238497 -2.25273e-20)
(30.0383 -0.238908 4.63147e-21)
(30.0385 -0.239307 -2.61708e-21)
(30.0388 -0.239696 6.02331e-21)
(30.039 -0.240077 5.75761e-21)
(30.0392 -0.240449 -6.941e-21)
(30.0394 -0.240807 5.54492e-21)
(30.0396 -0.241145 -6.5943e-21)
(30.0397 -0.241456 5.42761e-21)
(30.0399 -0.241739 -3.0234e-21)
(30.04 -0.242002 -5.29282e-22)
(30.0402 -0.242256 -8.54546e-22)
(30.0403 -0.242513 5.21645e-22)
(30.0405 -0.242775 5.95603e-22)
(30.0406 -0.243034 -1.79042e-21)
(30.0407 -0.243272 3.44659e-21)
(30.0408 -0.243474 1.87647e-23)
(30.0409 -0.243639 9.63386e-22)
(30.0409 -0.243781 -2.40185e-21)
(30.041 -0.243923 1.11046e-21)
(30.0411 -0.244086 5.76738e-22)
(30.0412 -0.244267 -2.43515e-21)
(30.0412 -0.244444 2.25483e-21)
(30.0413 -0.244586 -1.09634e-22)
(30.0413 -0.244672 -9.51705e-22)
(30.0413 -0.244714 -4.00018e-22)
(30.0413 -0.244748 -2.78784e-22)
(30.0414 -0.244815 3.1315e-23)
(30.0414 -0.24493 1.30032e-22)
(30.0415 -0.245064 -1.60662e-22)
(30.0415 -0.245164 -1.0026e-22)
(30.0415 -0.245182 -6.25934e-23)
(30.0414 -0.245108 -2.67775e-23)
(30.0414 -0.245046 -1.20478e-23)
(29.9884 -0.135448 -5.49485e-20)
(29.9885 -0.135912 -3.20167e-20)
(29.9886 -0.136382 7.29052e-20)
(29.9888 -0.136859 -3.7633e-20)
(29.9889 -0.137343 5.15573e-21)
(29.989 -0.137834 8.44975e-21)
(29.9892 -0.138332 7.77639e-21)
(29.9893 -0.138838 3.23714e-20)
(29.9894 -0.139351 -8.58251e-20)
(29.9896 -0.139871 2.34397e-20)
(29.9897 -0.140399 2.91949e-20)
(29.9899 -0.140934 5.98943e-21)
(29.99 -0.141477 -5.80552e-21)
(29.9902 -0.142028 5.12207e-20)
(29.9904 -0.142586 -5.50064e-20)
(29.9905 -0.143152 1.41244e-20)
(29.9907 -0.143726 2.30433e-20)
(29.9909 -0.144308 -4.48994e-20)
(29.9911 -0.144898 -2.78507e-20)
(29.9912 -0.145496 7.25049e-20)
(29.9914 -0.146103 -8.30081e-20)
(29.9916 -0.146717 7.50169e-20)
(29.9918 -0.14734 -1.70254e-20)
(29.992 -0.147971 -6.38171e-21)
(29.9922 -0.148611 -6.87222e-20)
(29.9924 -0.149259 3.8567e-21)
(29.9926 -0.149915 9.9844e-20)
(29.9928 -0.15058 -8.0359e-20)
(29.993 -0.151253 -1.66581e-21)
(29.9932 -0.151935 3.30152e-20)
(29.9935 -0.152626 4.09635e-20)
(29.9937 -0.153325 1.5144e-20)
(29.9939 -0.154033 -3.32112e-20)
(29.9942 -0.15475 -6.48089e-20)
(29.9944 -0.155475 5.58763e-20)
(29.9947 -0.156209 2.23671e-20)
(29.9949 -0.156951 -3.25394e-20)
(29.9952 -0.157703 -6.08281e-20)
(29.9955 -0.158463 3.97488e-20)
(29.9957 -0.159232 7.37041e-20)
(29.996 -0.160009 -3.00749e-20)
(29.9963 -0.160795 4.26995e-20)
(29.9966 -0.161589 -1.35261e-19)
(29.9969 -0.162392 3.99261e-20)
(29.9972 -0.163203 3.4744e-20)
(29.9975 -0.164023 -1.55186e-20)
(29.9978 -0.164852 -5.62766e-21)
(29.9981 -0.165688 3.38446e-20)
(29.9984 -0.166533 -1.38446e-20)
(29.9987 -0.167386 -2.98841e-20)
(29.9991 -0.168246 3.73179e-20)
(29.9994 -0.169115 -1.39688e-20)
(29.9998 -0.169991 5.29339e-20)
(30.0001 -0.170875 -4.82873e-20)
(30.0005 -0.171767 -4.88899e-23)
(30.0009 -0.172666 4.4766e-20)
(30.0012 -0.173572 2.40861e-20)
(30.0016 -0.174485 -4.76213e-20)
(30.002 -0.175405 -5.58575e-20)
(30.0024 -0.176332 3.1442e-20)
(30.0028 -0.177265 4.65249e-20)
(30.0032 -0.178205 -4.46756e-20)
(30.0036 -0.17915 -4.83324e-20)
(30.0041 -0.1801 5.19634e-20)
(30.0045 -0.181056 -3.99487e-20)
(30.0049 -0.182018 -1.55107e-20)
(30.0054 -0.182985 7.63809e-20)
(30.0058 -0.183958 -4.30641e-20)
(30.0063 -0.184935 -1.38267e-20)
(30.0067 -0.185915 -6.80564e-20)
(30.0072 -0.186897 1.14359e-19)
(30.0077 -0.187882 3.80133e-20)
(30.0082 -0.188871 3.4061e-20)
(30.0087 -0.189864 1.75703e-20)
(30.0092 -0.190862 -1.64096e-19)
(30.0097 -0.191863 1.84042e-20)