/*--------------------------------*- C++ -*----------------------------------*\
  =========                 |
  \\      /  F ield         | OpenFOAM: The Open Source CFD Toolbox
   \\    /   O peration     | Website:  https://openfoam.org
    \\  /    A nd           | Version:  13
     \\/     M anipulation  |
\*---------------------------------------------------------------------------*/
FoamFile
{
    format      ascii;
    class       volScalarField;
    location    "0.05";
    object      nut;
}
// * * * * * * * * * * * * * * * * * * * * * * * * * * * * * * * * * * * * * //

dimensions      [0 2 -1 0 0 0 0];

internalField   nonuniform List<scalar> 
68864
(
3.15963e-06
3.15962e-06
3.15962e-06
3.15962e-06
3.15962e-06
3.15962e-06
3.15963e-06
3.15963e-06
3.15964e-06
3.15965e-06
3.15966e-06
3.15967e-06
3.15968e-06
3.15969e-06
3.15971e-06
3.15972e-06
3.15974e-06
3.15976e-06
3.15978e-06
3.1598e-06
3.15982e-06
3.15984e-06
3.15986e-06
3.15989e-06
3.15992e-06
3.15995e-06
3.15998e-06
3.16001e-06
3.16004e-06
3.16008e-06
3.16011e-06
3.16015e-06
3.16019e-06
3.16023e-06
3.16028e-06
3.16032e-06
3.16037e-06
3.16042e-06
3.16047e-06
3.16052e-06
3.16057e-06
3.16063e-06
3.16069e-06
3.16075e-06
3.16082e-06
3.16088e-06
3.16095e-06
3.16102e-06
3.1611e-06
3.16117e-06
3.16125e-06
3.16133e-06
3.16142e-06
3.16151e-06
3.1616e-06
3.16169e-06
3.16179e-06
3.16189e-06
3.16199e-06
3.1621e-06
3.16221e-06
3.16232e-06
3.16244e-06
3.16256e-06
3.16268e-06
3.16281e-06
3.16294e-06
3.16307e-06
3.16321e-06
3.16335e-06
3.1635e-06
3.16365e-06
3.1638e-06
3.16395e-06
3.16411e-06
3.16427e-06
3.16443e-06
3.1646e-06
3.16476e-06
3.16493e-06
3.1651e-06
3.16527e-06
3.16544e-06
3.16561e-06
3.16578e-06
3.16595e-06
3.16611e-06
3.16628e-06
3.16644e-06
3.16659e-06
3.16675e-06
3.16689e-06
3.16704e-06
3.16717e-06
3.1673e-06
3.16742e-06
3.16754e-06
3.16765e-06
3.16775e-06
3.16784e-06
3.16792e-06
3.16799e-06
3.16805e-06
3.1681e-06
3.16814e-06
3.16818e-06
3.1682e-06
3.16821e-06
3.16821e-06
3.16821e-06
3.16819e-06
3.16817e-06
3.16814e-06
3.1681e-06
3.16806e-06
3.16801e-06
3.16795e-06
3.16789e-06
3.16783e-06
3.16776e-06
3.16768e-06
3.16761e-06
3.16753e-06
3.16746e-06
3.16738e-06
3.1673e-06
3.16722e-06
3.16715e-06
3.16707e-06
3.167e-06
3.16692e-06
3.16685e-06
3.16678e-06
3.16671e-06
3.16665e-06
3.16658e-06
3.16651e-06
3.16645e-06
3.16639e-06
3.16632e-06
3.16626e-06
3.1662e-06
3.16614e-06
3.16608e-06
3.16601e-06
3.16595e-06
3.16588e-06
3.16582e-06
3.16575e-06
3.16568e-06
3.16562e-06
3.16555e-06
3.16547e-06
3.1654e-06
3.16533e-06
3.16526e-06
3.16518e-06
3.16511e-06
3.16503e-06
3.16496e-06
3.16488e-06
3.16481e-06
3.16473e-06
3.16466e-06
3.16459e-06
3.16451e-06
3.16444e-06
3.15881e-06
3.15881e-06
3.15882e-06
3.15883e-06
3.15884e-06
3.15884e-06
3.15885e-06
3.15885e-06
3.15886e-06
3.15887e-06
3.15888e-06
3.1589e-06
3.15891e-06
3.15893e-06
3.15894e-06
3.15896e-06
3.15898e-06
3.159e-06
3.15903e-06
3.15905e-06
3.15908e-06
3.15911e-06
3.15914e-06
3.15917e-06
3.15921e-06
3.15924e-06
3.15928e-06
3.15932e-06
3.15936e-06
3.1594e-06
3.15945e-06
3.15949e-06
3.15954e-06
3.15959e-06
3.15965e-06
3.1597e-06
3.15976e-06
3.15982e-06
3.15989e-06
3.15995e-06
3.16002e-06
3.16009e-06
3.16016e-06
3.16024e-06
3.16032e-06
3.1604e-06
3.16049e-06
3.16058e-06
3.16067e-06
3.16076e-06
3.16086e-06
3.16096e-06
3.16107e-06
3.16118e-06
3.16129e-06
3.16141e-06
3.16153e-06
3.16165e-06
3.16178e-06
3.16191e-06
3.16205e-06
3.16219e-06
3.16234e-06
3.16249e-06
3.16264e-06
3.1628e-06
3.16296e-06
3.16313e-06
3.1633e-06
3.16348e-06
3.16366e-06
3.16384e-06
3.16403e-06
3.16422e-06
3.16442e-06
3.16462e-06
3.16482e-06
3.16502e-06
3.16523e-06
3.16544e-06
3.16565e-06
3.16587e-06
3.16608e-06
3.16629e-06
3.16651e-06
3.16672e-06
3.16693e-06
3.16714e-06
3.16735e-06
3.16755e-06
3.16775e-06
3.16794e-06
3.16813e-06
3.16832e-06
3.1685e-06
3.16867e-06
3.16883e-06
3.16899e-06
3.16914e-06
3.16928e-06
3.16941e-06
3.16953e-06
3.16964e-06
3.16975e-06
3.16984e-06
3.16993e-06
3.17e-06
3.17007e-06
3.17013e-06
3.17018e-06
3.17022e-06
3.17025e-06
3.17028e-06
3.17029e-06
3.17031e-06
3.17031e-06
3.17031e-06
3.17031e-06
3.1703e-06
3.17028e-06
3.17027e-06
3.17025e-06
3.17022e-06
3.1702e-06
3.17017e-06
3.17014e-06
3.17011e-06
3.17008e-06
3.17005e-06
3.17002e-06
3.16998e-06
3.16995e-06
3.16992e-06
3.16989e-06
3.16986e-06
3.16983e-06
3.1698e-06
3.16977e-06
3.16974e-06
3.16971e-06
3.16968e-06
3.16965e-06
3.16962e-06
3.16959e-06
3.16957e-06
3.16954e-06
3.16951e-06
3.16949e-06
3.16946e-06
3.16944e-06
3.16941e-06
3.16939e-06
3.16936e-06
3.16934e-06
3.16932e-06
3.1693e-06
3.16928e-06
3.16926e-06
3.16924e-06
3.16922e-06
3.1692e-06
3.16918e-06
3.16917e-06
3.16916e-06
3.16914e-06
3.16912e-06
3.16912e-06
3.15884e-06
3.15883e-06
3.15884e-06
3.15885e-06
3.15885e-06
3.15884e-06
3.15884e-06
3.15884e-06
3.15883e-06
3.15883e-06
3.15882e-06
3.15882e-06
3.15882e-06
3.15881e-06
3.15881e-06
3.15882e-06
3.15882e-06
3.15882e-06
3.15883e-06
3.15884e-06
3.15885e-06
3.15886e-06
3.15887e-06
3.15889e-06
3.15891e-06
3.15893e-06
3.15895e-06
3.15897e-06
3.159e-06
3.15903e-06
3.15906e-06
3.15909e-06
3.15913e-06
3.15917e-06
3.15921e-06
3.15926e-06
3.1593e-06
3.15935e-06
3.15941e-06
3.15946e-06
3.15952e-06
3.15958e-06
3.15965e-06
3.15971e-06
3.15978e-06
3.15986e-06
3.15993e-06
3.16001e-06
3.1601e-06
3.16018e-06
3.16027e-06
3.16036e-06
3.16046e-06
3.16056e-06
3.16066e-06
3.16077e-06
3.16088e-06
3.16099e-06
3.16111e-06
3.16123e-06
3.16136e-06
3.16148e-06
3.16162e-06
3.16175e-06
3.16189e-06
3.16204e-06
3.16219e-06
3.16234e-06
3.16249e-06
3.16265e-06
3.16282e-06
3.16298e-06
3.16315e-06
3.16333e-06
3.1635e-06
3.16368e-06
3.16386e-06
3.16404e-06
3.16423e-06
3.16441e-06
3.1646e-06
3.16479e-06
3.16498e-06
3.16516e-06
3.16535e-06
3.16554e-06
3.16572e-06
3.1659e-06
3.16608e-06
3.16626e-06
3.16643e-06
3.16659e-06
3.16676e-06
3.16691e-06
3.16707e-06
3.16721e-06
3.16735e-06
3.16749e-06
3.16761e-06
3.16773e-06
3.16784e-06
3.16795e-06
3.16805e-06
3.16814e-06
3.16822e-06
3.1683e-06
3.16837e-06
3.16843e-06
3.16849e-06
3.16854e-06
3.16859e-06
3.16863e-06
3.16867e-06
3.1687e-06
3.16873e-06
3.16876e-06
3.16878e-06
3.1688e-06
3.16882e-06
3.16883e-06
3.16885e-06
3.16886e-06
3.16887e-06
3.16889e-06
3.1689e-06
3.16891e-06
3.16892e-06
3.16894e-06
3.16895e-06
3.16896e-06
3.16897e-06
3.16899e-06
3.169e-06
3.16902e-06
3.16903e-06
3.16905e-06
3.16906e-06
3.16908e-06
3.16909e-06
3.16911e-06
3.16912e-06
3.16914e-06
3.16916e-06
3.16917e-06
3.16919e-06
3.16921e-06
3.16923e-06
3.16925e-06
3.16926e-06
3.16928e-06
3.1693e-06
3.16933e-06
3.16935e-06
3.16937e-06
3.1694e-06
3.16942e-06
3.16945e-06
3.16948e-06
3.16951e-06
3.16954e-06
3.16957e-06
3.1696e-06
3.16964e-06
3.16968e-06
3.16972e-06
3.16975e-06
3.16981e-06
3.15876e-06
3.15876e-06
3.15876e-06
3.15877e-06
3.15877e-06
3.15877e-06
3.15877e-06
3.15877e-06
3.15877e-06
3.15876e-06
3.15876e-06
3.15876e-06
3.15877e-06
3.15877e-06
3.15877e-06
3.15878e-06
3.15879e-06
3.1588e-06
3.15881e-06
3.15882e-06
3.15883e-06
3.15885e-06
3.15887e-06
3.15889e-06
3.15891e-06
3.15894e-06
3.15896e-06
3.15899e-06
3.15902e-06
3.15906e-06
3.1591e-06
3.15913e-06
3.15918e-06
3.15922e-06
3.15927e-06
3.15932e-06
3.15937e-06
3.15942e-06
3.15948e-06
3.15954e-06
3.1596e-06
3.15967e-06
3.15974e-06
3.15981e-06
3.15988e-06
3.15996e-06
3.16004e-06
3.16012e-06
3.16021e-06
3.1603e-06
3.16039e-06
3.16049e-06
3.16059e-06
3.16069e-06
3.1608e-06
3.16091e-06
3.16102e-06
3.16114e-06
3.16126e-06
3.16138e-06
3.16151e-06
3.16165e-06
3.16178e-06
3.16192e-06
3.16206e-06
3.16221e-06
3.16236e-06
3.16252e-06
3.16268e-06
3.16284e-06
3.163e-06
3.16317e-06
3.16334e-06
3.16352e-06
3.1637e-06
3.16388e-06
3.16406e-06
3.16424e-06
3.16443e-06
3.16461e-06
3.1648e-06
3.16499e-06
3.16517e-06
3.16536e-06
3.16554e-06
3.16573e-06
3.16591e-06
3.16609e-06
3.16626e-06
3.16644e-06
3.1666e-06
3.16677e-06
3.16693e-06
3.16708e-06
3.16723e-06
3.16737e-06
3.16751e-06
3.16763e-06
3.16776e-06
3.16787e-06
3.16798e-06
3.16808e-06
3.16818e-06
3.16827e-06
3.16835e-06
3.16842e-06
3.16849e-06
3.16856e-06
3.16861e-06
3.16867e-06
3.16872e-06
3.16876e-06
3.1688e-06
3.16884e-06
3.16887e-06
3.1689e-06
3.16893e-06
3.16895e-06
3.16898e-06
3.169e-06
3.16903e-06
3.16905e-06
3.16907e-06
3.1691e-06
3.16912e-06
3.16914e-06
3.16916e-06
3.16919e-06
3.16921e-06
3.16924e-06
3.16926e-06
3.16929e-06
3.16932e-06
3.16934e-06
3.16937e-06
3.1694e-06
3.16942e-06
3.16945e-06
3.16948e-06
3.16951e-06
3.16954e-06
3.16957e-06
3.1696e-06
3.16962e-06
3.16965e-06
3.16968e-06
3.16971e-06
3.16974e-06
3.16977e-06
3.1698e-06
3.16983e-06
3.16986e-06
3.16989e-06
3.16992e-06
3.16995e-06
3.16998e-06
3.17002e-06
3.17005e-06
3.17009e-06
3.17013e-06
3.17017e-06
3.17021e-06
3.17025e-06
3.1703e-06
3.17035e-06
3.17039e-06
3.17045e-06
3.15882e-06
3.15883e-06
3.15883e-06
3.15884e-06
3.15885e-06
3.15885e-06
3.15885e-06
3.15885e-06
3.15884e-06
3.15884e-06
3.15884e-06
3.15884e-06
3.15883e-06
3.15883e-06
3.15884e-06
3.15884e-06
3.15884e-06
3.15885e-06
3.15885e-06
3.15886e-06
3.15887e-06
3.15888e-06
3.1589e-06
3.15891e-06
3.15893e-06
3.15895e-06
3.15897e-06
3.15899e-06
3.15902e-06
3.15905e-06
3.15908e-06
3.15912e-06
3.15915e-06
3.15919e-06
3.15923e-06
3.15928e-06
3.15933e-06
3.15938e-06
3.15943e-06
3.15949e-06
3.15955e-06
3.15961e-06
3.15967e-06
3.15974e-06
3.15981e-06
3.15989e-06
3.15997e-06
3.16005e-06
3.16013e-06
3.16022e-06
3.16031e-06
3.1604e-06
3.1605e-06
3.1606e-06
3.16071e-06
3.16082e-06
3.16093e-06
3.16104e-06
3.16116e-06
3.16129e-06
3.16141e-06
3.16154e-06
3.16168e-06
3.16182e-06
3.16196e-06
3.16211e-06
3.16225e-06
3.16241e-06
3.16256e-06
3.16273e-06
3.16289e-06
3.16306e-06
3.16322e-06
3.1634e-06
3.16357e-06
3.16375e-06
3.16393e-06
3.16411e-06
3.16429e-06
3.16447e-06
3.16466e-06
3.16484e-06
3.16503e-06
3.16521e-06
3.16539e-06
3.16557e-06
3.16575e-06
3.16592e-06
3.16609e-06
3.16626e-06
3.16643e-06
3.16659e-06
3.16674e-06
3.16689e-06
3.16703e-06
3.16717e-06
3.16731e-06
3.16743e-06
3.16755e-06
3.16767e-06
3.16777e-06
3.16787e-06
3.16797e-06
3.16806e-06
3.16814e-06
3.16822e-06
3.16829e-06
3.16836e-06
3.16842e-06
3.16847e-06
3.16853e-06
3.16858e-06
3.16862e-06
3.16867e-06
3.16871e-06
3.16875e-06
3.16878e-06
3.16882e-06
3.16886e-06
3.16889e-06
3.16892e-06
3.16896e-06
3.16899e-06
3.16902e-06
3.16906e-06
3.16909e-06
3.16912e-06
3.16916e-06
3.16919e-06
3.16923e-06
3.16926e-06
3.1693e-06
3.16933e-06
3.16937e-06
3.16941e-06
3.16944e-06
3.16948e-06
3.16952e-06
3.16955e-06
3.16959e-06
3.16962e-06
3.16966e-06
3.16969e-06
3.16973e-06
3.16977e-06
3.1698e-06
3.16984e-06
3.16987e-06
3.16991e-06
3.16994e-06
3.16998e-06
3.17002e-06
3.17006e-06
3.17009e-06
3.17013e-06
3.17017e-06
3.17022e-06
3.17026e-06
3.1703e-06
3.17035e-06
3.1704e-06
3.17045e-06
3.1705e-06
3.17056e-06
3.17061e-06
3.17066e-06
3.17073e-06
3.15877e-06
3.15877e-06
3.15878e-06
3.1588e-06
3.1588e-06
3.1588e-06
3.1588e-06
3.1588e-06
3.1588e-06
3.1588e-06
3.1588e-06
3.1588e-06
3.1588e-06
3.1588e-06
3.15881e-06
3.15881e-06
3.15881e-06
3.15882e-06
3.15883e-06
3.15884e-06
3.15885e-06
3.15886e-06
3.15888e-06
3.15889e-06
3.15891e-06
3.15893e-06
3.15896e-06
3.15898e-06
3.15901e-06
3.15904e-06
3.15907e-06
3.15911e-06
3.15914e-06
3.15918e-06
3.15923e-06
3.15927e-06
3.15932e-06
3.15937e-06
3.15943e-06
3.15948e-06
3.15954e-06
3.1596e-06
3.15967e-06
3.15974e-06
3.15981e-06
3.15989e-06
3.15996e-06
3.16005e-06
3.16013e-06
3.16022e-06
3.16031e-06
3.16041e-06
3.1605e-06
3.16061e-06
3.16071e-06
3.16082e-06
3.16093e-06
3.16105e-06
3.16117e-06
3.16129e-06
3.16142e-06
3.16155e-06
3.16168e-06
3.16182e-06
3.16197e-06
3.16211e-06
3.16226e-06
3.16241e-06
3.16257e-06
3.16273e-06
3.16289e-06
3.16306e-06
3.16323e-06
3.1634e-06
3.16357e-06
3.16375e-06
3.16393e-06
3.16411e-06
3.16429e-06
3.16447e-06
3.16465e-06
3.16483e-06
3.16502e-06
3.1652e-06
3.16538e-06
3.16555e-06
3.16573e-06
3.1659e-06
3.16607e-06
3.16623e-06
3.1664e-06
3.16655e-06
3.16671e-06
3.16685e-06
3.16699e-06
3.16713e-06
3.16726e-06
3.16739e-06
3.16751e-06
3.16762e-06
3.16773e-06
3.16783e-06
3.16792e-06
3.16801e-06
3.1681e-06
3.16818e-06
3.16825e-06
3.16832e-06
3.16839e-06
3.16845e-06
3.16851e-06
3.16856e-06
3.16862e-06
3.16867e-06
3.16871e-06
3.16876e-06
3.16881e-06
3.16885e-06
3.1689e-06
3.16894e-06
3.16898e-06
3.16903e-06
3.16907e-06
3.16911e-06
3.16916e-06
3.1692e-06
3.16925e-06
3.16929e-06
3.16934e-06
3.16938e-06
3.16942e-06
3.16947e-06
3.16951e-06
3.16956e-06
3.1696e-06
3.16965e-06
3.16969e-06
3.16974e-06
3.16978e-06
3.16982e-06
3.16986e-06
3.1699e-06
3.16995e-06
3.16999e-06
3.17003e-06
3.17007e-06
3.17011e-06
3.17014e-06
3.17018e-06
3.17022e-06
3.17026e-06
3.1703e-06
3.17034e-06
3.17038e-06
3.17042e-06
3.17047e-06
3.17051e-06
3.17055e-06
3.1706e-06
3.17065e-06
3.1707e-06
3.17075e-06
3.1708e-06
3.17085e-06
3.17091e-06
3.17096e-06
3.17103e-06
3.15875e-06
3.15876e-06
3.15877e-06
3.15879e-06
3.15879e-06
3.1588e-06
3.1588e-06
3.1588e-06
3.1588e-06
3.1588e-06
3.1588e-06
3.1588e-06
3.1588e-06
3.1588e-06
3.15881e-06
3.15881e-06
3.15881e-06
3.15882e-06
3.15882e-06
3.15883e-06
3.15884e-06
3.15885e-06
3.15886e-06
3.15888e-06
3.15889e-06
3.15891e-06
3.15893e-06
3.15895e-06
3.15898e-06
3.159e-06
3.15903e-06
3.15906e-06
3.1591e-06
3.15913e-06
3.15917e-06
3.15922e-06
3.15926e-06
3.15931e-06
3.15936e-06
3.15941e-06
3.15947e-06
3.15953e-06
3.15959e-06
3.15966e-06
3.15973e-06
3.1598e-06
3.15988e-06
3.15996e-06
3.16004e-06
3.16012e-06
3.16021e-06
3.16031e-06
3.1604e-06
3.1605e-06
3.16061e-06
3.16071e-06
3.16082e-06
3.16094e-06
3.16106e-06
3.16118e-06
3.1613e-06
3.16143e-06
3.16157e-06
3.1617e-06
3.16185e-06
3.16199e-06
3.16214e-06
3.16229e-06
3.16245e-06
3.1626e-06
3.16277e-06
3.16293e-06
3.1631e-06
3.16327e-06
3.16344e-06
3.16362e-06
3.16379e-06
3.16397e-06
3.16415e-06
3.16433e-06
3.16451e-06
3.16469e-06
3.16487e-06
3.16505e-06
3.16523e-06
3.1654e-06
3.16557e-06
3.16574e-06
3.16591e-06
3.16607e-06
3.16623e-06
3.16639e-06
3.16654e-06
3.16669e-06
3.16683e-06
3.16696e-06
3.16709e-06
3.16722e-06
3.16734e-06
3.16745e-06
3.16756e-06
3.16767e-06
3.16776e-06
3.16786e-06
3.16795e-06
3.16803e-06
3.16811e-06
3.16819e-06
3.16826e-06
3.16833e-06
3.1684e-06
3.16846e-06
3.16852e-06
3.16858e-06
3.16864e-06
3.1687e-06
3.16876e-06
3.16881e-06
3.16887e-06
3.16892e-06
3.16898e-06
3.16903e-06
3.16909e-06
3.16915e-06
3.1692e-06
3.16926e-06
3.16932e-06
3.16937e-06
3.16943e-06
3.16948e-06
3.16954e-06
3.1696e-06
3.16965e-06
3.16971e-06
3.16976e-06
3.16982e-06
3.16987e-06
3.16992e-06
3.16998e-06
3.17003e-06
3.17008e-06
3.17013e-06
3.17018e-06
3.17023e-06
3.17027e-06
3.17032e-06
3.17037e-06
3.17041e-06
3.17046e-06
3.1705e-06
3.17055e-06
3.17059e-06
3.17064e-06
3.17069e-06
3.17073e-06
3.17078e-06
3.17083e-06
3.17087e-06
3.17092e-06
3.17097e-06
3.17102e-06
3.17108e-06
3.17113e-06
3.17119e-06
3.17125e-06
3.1713e-06
3.17137e-06
3.15867e-06
3.15869e-06
3.1587e-06
3.15872e-06
3.15872e-06
3.15873e-06
3.15874e-06
3.15874e-06
3.15874e-06
3.15875e-06
3.15875e-06
3.15875e-06
3.15875e-06
3.15875e-06
3.15875e-06
3.15876e-06
3.15876e-06
3.15877e-06
3.15878e-06
3.15878e-06
3.15879e-06
3.1588e-06
3.15882e-06
3.15883e-06
3.15885e-06
3.15886e-06
3.15888e-06
3.1589e-06
3.15893e-06
3.15895e-06
3.15898e-06
3.15901e-06
3.15905e-06
3.15908e-06
3.15912e-06
3.15916e-06
3.15921e-06
3.15925e-06
3.1593e-06
3.15935e-06
3.15941e-06
3.15947e-06
3.15953e-06
3.15959e-06
3.15966e-06
3.15973e-06
3.15981e-06
3.15989e-06
3.15997e-06
3.16005e-06
3.16014e-06
3.16023e-06
3.16033e-06
3.16042e-06
3.16053e-06
3.16063e-06
3.16074e-06
3.16086e-06
3.16097e-06
3.16109e-06
3.16122e-06
3.16135e-06
3.16148e-06
3.16162e-06
3.16176e-06
3.1619e-06
3.16205e-06
3.1622e-06
3.16235e-06
3.16251e-06
3.16267e-06
3.16283e-06
3.163e-06
3.16317e-06
3.16334e-06
3.16352e-06
3.16369e-06
3.16387e-06
3.16404e-06
3.16422e-06
3.1644e-06
3.16458e-06
3.16476e-06
3.16493e-06
3.16511e-06
3.16528e-06
3.16545e-06
3.16562e-06
3.16579e-06
3.16595e-06
3.16611e-06
3.16626e-06
3.16641e-06
3.16656e-06
3.1667e-06
3.16683e-06
3.16696e-06
3.16709e-06
3.16721e-06
3.16733e-06
3.16744e-06
3.16754e-06
3.16765e-06
3.16774e-06
3.16784e-06
3.16793e-06
3.16801e-06
3.16809e-06
3.16817e-06
3.16825e-06
3.16833e-06
3.1684e-06
3.16847e-06
3.16854e-06
3.16861e-06
3.16868e-06
3.16875e-06
3.16881e-06
3.16888e-06
3.16895e-06
3.16902e-06
3.16908e-06
3.16915e-06
3.16922e-06
3.16929e-06
3.16936e-06
3.16942e-06
3.16949e-06
3.16956e-06
3.16963e-06
3.1697e-06
3.16976e-06
3.16983e-06
3.1699e-06
3.16996e-06
3.17003e-06
3.17009e-06
3.17015e-06
3.17021e-06
3.17027e-06
3.17033e-06
3.17039e-06
3.17045e-06
3.1705e-06
3.17056e-06
3.17061e-06
3.17067e-06
3.17072e-06
3.17077e-06
3.17082e-06
3.17087e-06
3.17092e-06
3.17097e-06
3.17103e-06
3.17108e-06
3.17113e-06
3.17118e-06
3.17123e-06
3.17128e-06
3.17134e-06
3.17139e-06
3.17145e-06
3.17151e-06
3.17156e-06
3.17163e-06
3.17168e-06
3.17175e-06
3.1586e-06
3.15862e-06
3.15863e-06
3.15865e-06
3.15866e-06
3.15867e-06
3.15867e-06
3.15868e-06
3.15869e-06
3.15869e-06
3.1587e-06
3.1587e-06
3.1587e-06
3.1587e-06
3.15871e-06
3.15871e-06
3.15872e-06
3.15872e-06
3.15873e-06
3.15874e-06
3.15875e-06
3.15876e-06
3.15877e-06
3.15878e-06
3.1588e-06
3.15882e-06
3.15884e-06
3.15886e-06
3.15888e-06
3.1589e-06
3.15893e-06
3.15896e-06
3.15899e-06
3.15902e-06
3.15906e-06
3.1591e-06
3.15914e-06
3.15919e-06
3.15923e-06
3.15928e-06
3.15934e-06
3.15939e-06
3.15945e-06
3.15951e-06
3.15958e-06
3.15965e-06
3.15972e-06
3.1598e-06
3.15988e-06
3.15996e-06
3.16004e-06
3.16013e-06
3.16023e-06
3.16032e-06
3.16042e-06
3.16053e-06
3.16064e-06
3.16075e-06
3.16086e-06
3.16098e-06
3.16111e-06
3.16123e-06
3.16137e-06
3.1615e-06
3.16164e-06
3.16178e-06
3.16193e-06
3.16208e-06
3.16223e-06
3.16239e-06
3.16255e-06
3.16271e-06
3.16288e-06
3.16304e-06
3.16321e-06
3.16339e-06
3.16356e-06
3.16374e-06
3.16391e-06
3.16409e-06
3.16427e-06
3.16444e-06
3.16462e-06
3.16479e-06
3.16497e-06
3.16514e-06
3.16531e-06
3.16548e-06
3.16564e-06
3.1658e-06
3.16596e-06
3.16612e-06
3.16627e-06
3.16641e-06
3.16655e-06
3.16669e-06
3.16682e-06
3.16695e-06
3.16708e-06
3.16719e-06
3.16731e-06
3.16742e-06
3.16753e-06
3.16763e-06
3.16773e-06
3.16782e-06
3.16792e-06
3.16801e-06
3.16809e-06
3.16818e-06
3.16826e-06
3.16835e-06
3.16843e-06
3.16851e-06
3.16859e-06
3.16867e-06
3.16875e-06
3.16883e-06
3.16891e-06
3.16899e-06
3.16907e-06
3.16915e-06
3.16923e-06
3.16931e-06
3.16939e-06
3.16947e-06
3.16955e-06
3.16963e-06
3.16971e-06
3.16979e-06
3.16987e-06
3.16995e-06
3.17002e-06
3.1701e-06
3.17018e-06
3.17025e-06
3.17032e-06
3.1704e-06
3.17047e-06
3.17054e-06
3.17061e-06
3.17067e-06
3.17074e-06
3.1708e-06
3.17087e-06
3.17093e-06
3.17099e-06
3.17105e-06
3.17111e-06
3.17117e-06
3.17122e-06
3.17128e-06
3.17134e-06
3.17139e-06
3.17145e-06
3.17151e-06
3.17156e-06
3.17162e-06
3.17168e-06
3.17173e-06
3.17179e-06
3.17185e-06
3.17191e-06
3.17197e-06
3.17203e-06
3.17209e-06
3.17215e-06
3.1585e-06
3.15852e-06
3.15854e-06
3.15856e-06
3.15857e-06
3.15858e-06
3.15859e-06
3.1586e-06
3.1586e-06
3.15861e-06
3.15862e-06
3.15862e-06
3.15863e-06
3.15863e-06
3.15864e-06
3.15864e-06
3.15865e-06
3.15866e-06
3.15866e-06
3.15867e-06
3.15868e-06
3.15869e-06
3.15871e-06
3.15872e-06
3.15874e-06
3.15875e-06
3.15877e-06
3.15879e-06
3.15882e-06
3.15884e-06
3.15887e-06
3.1589e-06
3.15893e-06
3.15896e-06
3.15899e-06
3.15903e-06
3.15907e-06
3.15912e-06
3.15916e-06
3.15921e-06
3.15926e-06
3.15932e-06
3.15937e-06
3.15944e-06
3.1595e-06
3.15957e-06
3.15964e-06
3.15971e-06
3.15979e-06
3.15987e-06
3.15995e-06
3.16004e-06
3.16013e-06
3.16023e-06
3.16033e-06
3.16043e-06
3.16054e-06
3.16065e-06
3.16076e-06
3.16088e-06
3.161e-06
3.16113e-06
3.16126e-06
3.16139e-06
3.16153e-06
3.16167e-06
3.16181e-06
3.16196e-06
3.16212e-06
3.16227e-06
3.16243e-06
3.16259e-06
3.16276e-06
3.16292e-06
3.16309e-06
3.16326e-06
3.16344e-06
3.16361e-06
3.16379e-06
3.16396e-06
3.16414e-06
3.16431e-06
3.16449e-06
3.16466e-06
3.16484e-06
3.16501e-06
3.16518e-06
3.16534e-06
3.16551e-06
3.16567e-06
3.16583e-06
3.16598e-06
3.16613e-06
3.16628e-06
3.16642e-06
3.16656e-06
3.1667e-06
3.16683e-06
3.16696e-06
3.16708e-06
3.1672e-06
3.16731e-06
3.16743e-06
3.16754e-06
3.16764e-06
3.16774e-06
3.16785e-06
3.16794e-06
3.16804e-06
3.16814e-06
3.16823e-06
3.16832e-06
3.16842e-06
3.16851e-06
3.1686e-06
3.16869e-06
3.16878e-06
3.16888e-06
3.16897e-06
3.16906e-06
3.16915e-06
3.16925e-06
3.16934e-06
3.16943e-06
3.16953e-06
3.16962e-06
3.16971e-06
3.1698e-06
3.1699e-06
3.16999e-06
3.17008e-06
3.17017e-06
3.17026e-06
3.17035e-06
3.17043e-06
3.17052e-06
3.1706e-06
3.17068e-06
3.17076e-06
3.17084e-06
3.17092e-06
3.171e-06
3.17107e-06
3.17114e-06
3.17122e-06
3.17128e-06
3.17135e-06
3.17142e-06
3.17149e-06
3.17155e-06
3.17162e-06
3.17168e-06
3.17174e-06
3.1718e-06
3.17186e-06
3.17192e-06
3.17198e-06
3.17204e-06
3.1721e-06
3.17217e-06
3.17223e-06
3.17229e-06
3.17235e-06
3.17241e-06
3.17248e-06
3.17253e-06
3.1726e-06
3.15839e-06
3.15842e-06
3.15844e-06
3.15846e-06
3.15847e-06
3.15848e-06
3.1585e-06
3.15851e-06
3.15852e-06
3.15852e-06
3.15853e-06
3.15854e-06
3.15855e-06
3.15855e-06
3.15856e-06
3.15857e-06
3.15858e-06
3.15858e-06
3.15859e-06
3.1586e-06
3.15862e-06
3.15863e-06
3.15864e-06
3.15866e-06
3.15867e-06
3.15869e-06
3.15871e-06
3.15873e-06
3.15875e-06
3.15878e-06
3.1588e-06
3.15883e-06
3.15886e-06
3.15889e-06
3.15893e-06
3.15896e-06
3.159e-06
3.15904e-06
3.15909e-06
3.15914e-06
3.15919e-06
3.15924e-06
3.15929e-06
3.15935e-06
3.15942e-06
3.15948e-06
3.15955e-06
3.15962e-06
3.1597e-06
3.15978e-06
3.15986e-06
3.15994e-06
3.16003e-06
3.16013e-06
3.16022e-06
3.16032e-06
3.16043e-06
3.16054e-06
3.16065e-06
3.16077e-06
3.16089e-06
3.16101e-06
3.16114e-06
3.16127e-06
3.16141e-06
3.16155e-06
3.16169e-06
3.16184e-06
3.16199e-06
3.16215e-06
3.1623e-06
3.16247e-06
3.16263e-06
3.16279e-06
3.16296e-06
3.16313e-06
3.16331e-06
3.16348e-06
3.16365e-06
3.16383e-06
3.164e-06
3.16418e-06
3.16435e-06
3.16453e-06
3.1647e-06
3.16487e-06
3.16504e-06
3.16521e-06
3.16537e-06
3.16554e-06
3.16569e-06
3.16585e-06
3.166e-06
3.16615e-06
3.1663e-06
3.16644e-06
3.16658e-06
3.16671e-06
3.16684e-06
3.16697e-06
3.1671e-06
3.16722e-06
3.16734e-06
3.16745e-06
3.16757e-06
3.16768e-06
3.16779e-06
3.1679e-06
3.168e-06
3.16811e-06
3.16822e-06
3.16832e-06
3.16842e-06
3.16853e-06
3.16863e-06
3.16874e-06
3.16884e-06
3.16895e-06
3.16905e-06
3.16916e-06
3.16926e-06
3.16937e-06
3.16948e-06
3.16958e-06
3.16969e-06
3.16979e-06
3.1699e-06
3.17001e-06
3.17011e-06
3.17022e-06
3.17032e-06
3.17042e-06
3.17052e-06
3.17062e-06
3.17072e-06
3.17082e-06
3.17091e-06
3.171e-06
3.17109e-06
3.17118e-06
3.17127e-06
3.17136e-06
3.17144e-06
3.17152e-06
3.1716e-06
3.17168e-06
3.17176e-06
3.17183e-06
3.17191e-06
3.17198e-06
3.17205e-06
3.17212e-06
3.17219e-06
3.17225e-06
3.17232e-06
3.17238e-06
3.17245e-06
3.17251e-06
3.17257e-06
3.17264e-06
3.1727e-06
3.17276e-06
3.17282e-06
3.17289e-06
3.17295e-06
3.173e-06
3.17307e-06
3.15828e-06
3.15831e-06
3.15833e-06
3.15835e-06
3.15836e-06
3.15838e-06
3.15839e-06
3.1584e-06
3.15841e-06
3.15842e-06
3.15843e-06
3.15844e-06
3.15845e-06
3.15846e-06
3.15847e-06
3.15848e-06
3.15849e-06
3.1585e-06
3.15851e-06
3.15852e-06
3.15854e-06
3.15855e-06
3.15856e-06
3.15858e-06
3.1586e-06
3.15862e-06
3.15864e-06
3.15866e-06
3.15868e-06
3.1587e-06
3.15873e-06
3.15876e-06
3.15879e-06
3.15882e-06
3.15885e-06
3.15889e-06
3.15893e-06
3.15897e-06
3.15901e-06
3.15906e-06
3.15911e-06
3.15916e-06
3.15922e-06
3.15927e-06
3.15933e-06
3.1594e-06
3.15946e-06
3.15953e-06
3.15961e-06
3.15969e-06
3.15977e-06
3.15985e-06
3.15994e-06
3.16003e-06
3.16012e-06
3.16022e-06
3.16033e-06
3.16043e-06
3.16055e-06
3.16066e-06
3.16078e-06
3.1609e-06
3.16103e-06
3.16116e-06
3.1613e-06
3.16143e-06
3.16158e-06
3.16172e-06
3.16187e-06
3.16203e-06
3.16218e-06
3.16234e-06
3.16251e-06
3.16267e-06
3.16284e-06
3.16301e-06
3.16318e-06
3.16335e-06
3.16353e-06
3.1637e-06
3.16387e-06
3.16405e-06
3.16422e-06
3.1644e-06
3.16457e-06
3.16474e-06
3.16491e-06
3.16508e-06
3.16525e-06
3.16541e-06
3.16557e-06
3.16573e-06
3.16588e-06
3.16603e-06
3.16618e-06
3.16633e-06
3.16647e-06
3.16661e-06
3.16675e-06
3.16688e-06
3.16701e-06
3.16714e-06
3.16727e-06
3.16739e-06
3.16751e-06
3.16764e-06
3.16775e-06
3.16787e-06
3.16799e-06
3.16811e-06
3.16823e-06
3.16834e-06
3.16846e-06
3.16858e-06
3.16869e-06
3.16881e-06
3.16893e-06
3.16905e-06
3.16917e-06
3.16929e-06
3.16941e-06
3.16953e-06
3.16965e-06
3.16977e-06
3.16989e-06
3.17001e-06
3.17012e-06
3.17024e-06
3.17036e-06
3.17048e-06
3.17059e-06
3.17071e-06
3.17082e-06
3.17093e-06
3.17104e-06
3.17115e-06
3.17126e-06
3.17136e-06
3.17147e-06
3.17157e-06
3.17166e-06
3.17176e-06
3.17185e-06
3.17194e-06
3.17203e-06
3.17212e-06
3.1722e-06
3.17229e-06
3.17237e-06
3.17245e-06
3.17252e-06
3.1726e-06
3.17267e-06
3.17274e-06
3.17281e-06
3.17288e-06
3.17295e-06
3.17302e-06
3.17308e-06
3.17315e-06
3.17321e-06
3.17328e-06
3.17334e-06
3.1734e-06
3.17346e-06
3.17352e-06
3.17358e-06
3.15815e-06
3.15819e-06
3.15821e-06
3.15823e-06
3.15825e-06
3.15826e-06
3.15828e-06
3.15829e-06
3.1583e-06
3.15832e-06
3.15833e-06
3.15834e-06
3.15835e-06
3.15836e-06
3.15837e-06
3.15838e-06
3.1584e-06
3.15841e-06
3.15842e-06
3.15844e-06
3.15845e-06
3.15847e-06
3.15848e-06
3.1585e-06
3.15852e-06
3.15854e-06
3.15856e-06
3.15858e-06
3.15861e-06
3.15863e-06
3.15866e-06
3.15868e-06
3.15872e-06
3.15875e-06
3.15878e-06
3.15882e-06
3.15886e-06
3.1589e-06
3.15894e-06
3.15898e-06
3.15903e-06
3.15908e-06
3.15914e-06
3.15919e-06
3.15925e-06
3.15932e-06
3.15938e-06
3.15945e-06
3.15952e-06
3.1596e-06
3.15968e-06
3.15976e-06
3.15985e-06
3.15994e-06
3.16003e-06
3.16013e-06
3.16023e-06
3.16033e-06
3.16044e-06
3.16056e-06
3.16067e-06
3.1608e-06
3.16092e-06
3.16105e-06
3.16118e-06
3.16132e-06
3.16146e-06
3.16161e-06
3.16176e-06
3.16191e-06
3.16207e-06
3.16222e-06
3.16239e-06
3.16255e-06
3.16272e-06
3.16289e-06
3.16306e-06
3.16323e-06
3.1634e-06
3.16357e-06
3.16375e-06
3.16392e-06
3.1641e-06
3.16427e-06
3.16445e-06
3.16462e-06
3.16479e-06
3.16496e-06
3.16512e-06
3.16529e-06
3.16545e-06
3.16561e-06
3.16577e-06
3.16593e-06
3.16608e-06
3.16623e-06
3.16638e-06
3.16652e-06
3.16666e-06
3.1668e-06
3.16694e-06
3.16708e-06
3.16721e-06
3.16735e-06
3.16748e-06
3.16761e-06
3.16774e-06
3.16787e-06
3.168e-06
3.16813e-06
3.16826e-06
3.16839e-06
3.16852e-06
3.16865e-06
3.16878e-06
3.16891e-06
3.16904e-06
3.16918e-06
3.16931e-06
3.16944e-06
3.16958e-06
3.16971e-06
3.16985e-06
3.16998e-06
3.17012e-06
3.17025e-06
3.17038e-06
3.17052e-06
3.17065e-06
3.17078e-06
3.17091e-06
3.17104e-06
3.17116e-06
3.17129e-06
3.17141e-06
3.17153e-06
3.17165e-06
3.17176e-06
3.17188e-06
3.17199e-06
3.1721e-06
3.1722e-06
3.1723e-06
3.17241e-06
3.1725e-06
3.1726e-06
3.17269e-06
3.17278e-06
3.17287e-06
3.17296e-06
3.17304e-06
3.17312e-06
3.1732e-06
3.17328e-06
3.17335e-06
3.17342e-06
3.1735e-06
3.17357e-06
3.17363e-06
3.1737e-06
3.17376e-06
3.17383e-06
3.17389e-06
3.17395e-06
3.17401e-06
3.17406e-06
3.17412e-06
3.15802e-06
3.15807e-06
3.15809e-06
3.15811e-06
3.15812e-06
3.15814e-06
3.15816e-06
3.15817e-06
3.15818e-06
3.1582e-06
3.15821e-06
3.15823e-06
3.15824e-06
3.15825e-06
3.15827e-06
3.15828e-06
3.1583e-06
3.15831e-06
3.15833e-06
3.15834e-06
3.15836e-06
3.15838e-06
3.1584e-06
3.15842e-06
3.15844e-06
3.15846e-06
3.15848e-06
3.1585e-06
3.15853e-06
3.15855e-06
3.15858e-06
3.15861e-06
3.15864e-06
3.15867e-06
3.15871e-06
3.15874e-06
3.15878e-06
3.15882e-06
3.15887e-06
3.15891e-06
3.15896e-06
3.15901e-06
3.15906e-06
3.15912e-06
3.15918e-06
3.15924e-06
3.1593e-06
3.15937e-06
3.15944e-06
3.15952e-06
3.15959e-06
3.15967e-06
3.15976e-06
3.15985e-06
3.15994e-06
3.16004e-06
3.16014e-06
3.16024e-06
3.16035e-06
3.16046e-06
3.16058e-06
3.1607e-06
3.16082e-06
3.16095e-06
3.16108e-06
3.16122e-06
3.16136e-06
3.1615e-06
3.16165e-06
3.1618e-06
3.16195e-06
3.16211e-06
3.16227e-06
3.16244e-06
3.1626e-06
3.16277e-06
3.16294e-06
3.16311e-06
3.16328e-06
3.16346e-06
3.16363e-06
3.16381e-06
3.16398e-06
3.16416e-06
3.16433e-06
3.1645e-06
3.16467e-06
3.16484e-06
3.16501e-06
3.16518e-06
3.16535e-06
3.16551e-06
3.16567e-06
3.16583e-06
3.16599e-06
3.16614e-06
3.1663e-06
3.16645e-06
3.1666e-06
3.16675e-06
3.16689e-06
3.16704e-06
3.16718e-06
3.16733e-06
3.16747e-06
3.16761e-06
3.16775e-06
3.16789e-06
3.16804e-06
3.16818e-06
3.16832e-06
3.16847e-06
3.16861e-06
3.16875e-06
3.1689e-06
3.16904e-06
3.16919e-06
3.16934e-06
3.16949e-06
3.16964e-06
3.16979e-06
3.16993e-06
3.17008e-06
3.17023e-06
3.17038e-06
3.17053e-06
3.17068e-06
3.17083e-06
3.17097e-06
3.17112e-06
3.17126e-06
3.1714e-06
3.17154e-06
3.17168e-06
3.17181e-06
3.17195e-06
3.17208e-06
3.17221e-06
3.17233e-06
3.17245e-06
3.17257e-06
3.17269e-06
3.1728e-06
3.17291e-06
3.17302e-06
3.17312e-06
3.17322e-06
3.17332e-06
3.17342e-06
3.17351e-06
3.1736e-06
3.17369e-06
3.17377e-06
3.17385e-06
3.17393e-06
3.17401e-06
3.17408e-06
3.17415e-06
3.17422e-06
3.17429e-06
3.17435e-06
3.17441e-06
3.17447e-06
3.17453e-06
3.17459e-06
3.17463e-06
3.17468e-06
3.1579e-06
3.15794e-06
3.15796e-06
3.15798e-06
3.158e-06
3.15802e-06
3.15803e-06
3.15805e-06
3.15806e-06
3.15808e-06
3.1581e-06
3.15811e-06
3.15813e-06
3.15815e-06
3.15816e-06
3.15818e-06
3.1582e-06
3.15821e-06
3.15823e-06
3.15825e-06
3.15827e-06
3.15829e-06
3.15831e-06
3.15833e-06
3.15835e-06
3.15838e-06
3.1584e-06
3.15842e-06
3.15845e-06
3.15848e-06
3.15851e-06
3.15854e-06
3.15857e-06
3.1586e-06
3.15864e-06
3.15867e-06
3.15871e-06
3.15875e-06
3.1588e-06
3.15884e-06
3.15889e-06
3.15894e-06
3.15899e-06
3.15905e-06
3.1591e-06
3.15917e-06
3.15923e-06
3.1593e-06
3.15937e-06
3.15944e-06
3.15952e-06
3.15959e-06
3.15968e-06
3.15977e-06
3.15986e-06
3.15995e-06
3.16005e-06
3.16015e-06
3.16026e-06
3.16037e-06
3.16048e-06
3.1606e-06
3.16073e-06
3.16085e-06
3.16098e-06
3.16112e-06
3.16126e-06
3.1614e-06
3.16155e-06
3.1617e-06
3.16185e-06
3.16201e-06
3.16217e-06
3.16233e-06
3.16249e-06
3.16266e-06
3.16283e-06
3.163e-06
3.16317e-06
3.16335e-06
3.16352e-06
3.1637e-06
3.16387e-06
3.16405e-06
3.16422e-06
3.1644e-06
3.16457e-06
3.16474e-06
3.16491e-06
3.16508e-06
3.16525e-06
3.16542e-06
3.16559e-06
3.16575e-06
3.16591e-06
3.16607e-06
3.16623e-06
3.16639e-06
3.16655e-06
3.16671e-06
3.16686e-06
3.16702e-06
3.16717e-06
3.16733e-06
3.16748e-06
3.16763e-06
3.16779e-06
3.16794e-06
3.1681e-06
3.16825e-06
3.16841e-06
3.16857e-06
3.16873e-06
3.16889e-06
3.16905e-06
3.16921e-06
3.16937e-06
3.16953e-06
3.1697e-06
3.16986e-06
3.17003e-06
3.17019e-06
3.17036e-06
3.17052e-06
3.17069e-06
3.17085e-06
3.17102e-06
3.17118e-06