/*--------------------------------*- C++ -*----------------------------------*\
  =========                 |
  \\      /  F ield         | OpenFOAM: The Open Source CFD Toolbox
   \\    /   O peration     | Website:  https://openfoam.org
    \\  /    A nd           | Version:  13
     \\/     M anipulation  |
\*---------------------------------------------------------------------------*/
FoamFile
{
    format      ascii;
    class       volScalarField;
    location    "0.05";
    object      nuTilda;
}
// * * * * * * * * * * * * * * * * * * * * * * * * * * * * * * * * * * * * * //

dimensions      [0 2 -1 0 0 0 0];

internalField   nonuniform List<scalar> 
68864
(
4.50116e-05
4.50115e-05
4.50115e-05
4.50115e-05
4.50115e-05
4.50115e-05
4.50115e-05
4.50115e-05
4.50116e-05
4.50116e-05
4.50116e-05
4.50117e-05
4.50117e-05
4.50117e-05
4.50118e-05
4.50118e-05
4.50119e-05
4.5012e-05
4.5012e-05
4.50121e-05
4.50122e-05
4.50123e-05
4.50123e-05
4.50124e-05
4.50125e-05
4.50126e-05
4.50127e-05
4.50129e-05
4.5013e-05
4.50131e-05
4.50132e-05
4.50134e-05
4.50135e-05
4.50137e-05
4.50138e-05
4.5014e-05
4.50142e-05
4.50143e-05
4.50145e-05
4.50147e-05
4.50149e-05
4.50151e-05
4.50153e-05
4.50156e-05
4.50158e-05
4.5016e-05
4.50163e-05
4.50165e-05
4.50168e-05
4.50171e-05
4.50174e-05
4.50177e-05
4.5018e-05
4.50183e-05
4.50186e-05
4.5019e-05
4.50193e-05
4.50197e-05
4.50201e-05
4.50204e-05
4.50208e-05
4.50213e-05
4.50217e-05
4.50221e-05
4.50226e-05
4.5023e-05
4.50235e-05
4.5024e-05
4.50245e-05
4.5025e-05
4.50256e-05
4.50261e-05
4.50267e-05
4.50272e-05
4.50278e-05
4.50284e-05
4.5029e-05
4.50296e-05
4.50302e-05
4.50309e-05
4.50315e-05
4.50321e-05
4.50328e-05
4.50334e-05
4.50341e-05
4.50347e-05
4.50353e-05
4.5036e-05
4.50366e-05
4.50372e-05
4.50378e-05
4.50384e-05
4.5039e-05
4.50395e-05
4.504e-05
4.50405e-05
4.5041e-05
4.50415e-05
4.50419e-05
4.50423e-05
4.50427e-05
4.5043e-05
4.50433e-05
4.50435e-05
4.50437e-05
4.50439e-05
4.50441e-05
4.50442e-05
4.50442e-05
4.50443e-05
4.50443e-05
4.50442e-05
4.50442e-05
4.50441e-05
4.5044e-05
4.50438e-05
4.50436e-05
4.50434e-05
4.50432e-05
4.5043e-05
4.50427e-05
4.50424e-05
4.50421e-05
4.50419e-05
4.50416e-05
4.50413e-05
4.5041e-05
4.50407e-05
4.50404e-05
4.50401e-05
4.50398e-05
4.50395e-05
4.50392e-05
4.50389e-05
4.50387e-05
4.50384e-05
4.50381e-05
4.50379e-05
4.50376e-05
4.50374e-05
4.50371e-05
4.50369e-05
4.50367e-05
4.50364e-05
4.50362e-05
4.5036e-05
4.50357e-05
4.50355e-05
4.50352e-05
4.5035e-05
4.50348e-05
4.50345e-05
4.50342e-05
4.5034e-05
4.50337e-05
4.50335e-05
4.50332e-05
4.50329e-05
4.50327e-05
4.50324e-05
4.50321e-05
4.50319e-05
4.50316e-05
4.50313e-05
4.50311e-05
4.50308e-05
4.50306e-05
4.50084e-05
4.50084e-05
4.50085e-05
4.50085e-05
4.50085e-05
4.50085e-05
4.50085e-05
4.50086e-05
4.50086e-05
4.50086e-05
4.50086e-05
4.50087e-05
4.50087e-05
4.50088e-05
4.50089e-05
4.50089e-05
4.5009e-05
4.50091e-05
4.50091e-05
4.50092e-05
4.50093e-05
4.50094e-05
4.50095e-05
4.50097e-05
4.50098e-05
4.50099e-05
4.501e-05
4.50102e-05
4.50103e-05
4.50105e-05
4.50106e-05
4.50108e-05
4.5011e-05
4.50112e-05
4.50114e-05
4.50116e-05
4.50118e-05
4.5012e-05
4.50122e-05
4.50125e-05
4.50127e-05
4.5013e-05
4.50133e-05
4.50135e-05
4.50138e-05
4.50141e-05
4.50144e-05
4.50147e-05
4.50151e-05
4.50154e-05
4.50158e-05
4.50162e-05
4.50165e-05
4.50169e-05
4.50173e-05
4.50178e-05
4.50182e-05
4.50187e-05
4.50191e-05
4.50196e-05
4.50201e-05
4.50206e-05
4.50212e-05
4.50217e-05
4.50223e-05
4.50229e-05
4.50235e-05
4.50241e-05
4.50247e-05
4.50253e-05
4.5026e-05
4.50267e-05
4.50274e-05
4.50281e-05
4.50288e-05
4.50296e-05
4.50303e-05
4.50311e-05
4.50318e-05
4.50326e-05
4.50334e-05
4.50342e-05
4.5035e-05
4.50359e-05
4.50367e-05
4.50375e-05
4.50383e-05
4.50391e-05
4.50399e-05
4.50407e-05
4.50415e-05
4.50423e-05
4.5043e-05
4.50438e-05
4.50445e-05
4.50452e-05
4.50458e-05
4.50465e-05
4.50471e-05
4.50477e-05
4.50482e-05
4.50488e-05
4.50493e-05
4.50497e-05
4.50501e-05
4.50505e-05
4.50509e-05
4.50512e-05
4.50515e-05
4.50517e-05
4.50519e-05
4.50521e-05
4.50523e-05
4.50524e-05
4.50525e-05
4.50525e-05
4.50526e-05
4.50526e-05
4.50526e-05
4.50526e-05
4.50525e-05
4.50525e-05
4.50524e-05
4.50523e-05
4.50522e-05
4.50521e-05
4.5052e-05
4.50519e-05
4.50518e-05
4.50517e-05
4.50516e-05
4.50514e-05
4.50513e-05
4.50512e-05
4.50511e-05
4.5051e-05
4.50508e-05
4.50507e-05
4.50506e-05
4.50505e-05
4.50504e-05
4.50503e-05
4.50502e-05
4.50501e-05
4.505e-05
4.50499e-05
4.50498e-05
4.50497e-05
4.50496e-05
4.50495e-05
4.50494e-05
4.50493e-05
4.50492e-05
4.50491e-05
4.50491e-05
4.5049e-05
4.50489e-05
4.50488e-05
4.50488e-05
4.50487e-05
4.50486e-05
4.50486e-05
4.50485e-05
4.50485e-05
4.50484e-05
4.50484e-05
4.50483e-05
4.50085e-05
4.50085e-05
4.50085e-05
4.50086e-05
4.50086e-05
4.50086e-05
4.50086e-05
4.50085e-05
4.50085e-05
4.50085e-05
4.50085e-05
4.50085e-05
4.50085e-05
4.50085e-05
4.50084e-05
4.50085e-05
4.50085e-05
4.50085e-05
4.50085e-05
4.50085e-05
4.50085e-05
4.50086e-05
4.50086e-05
4.50087e-05
4.50087e-05
4.50088e-05
4.50089e-05
4.5009e-05
4.5009e-05
4.50091e-05
4.50093e-05
4.50094e-05
4.50095e-05
4.50096e-05
4.50098e-05
4.50099e-05
4.50101e-05
4.50103e-05
4.50105e-05
4.50107e-05
4.50109e-05
4.50111e-05
4.50113e-05
4.50116e-05
4.50118e-05
4.50121e-05
4.50124e-05
4.50126e-05
4.50129e-05
4.50133e-05
4.50136e-05
4.50139e-05
4.50143e-05
4.50146e-05
4.5015e-05
4.50154e-05
4.50158e-05
4.50162e-05
4.50166e-05
4.50171e-05
4.50175e-05
4.5018e-05
4.50185e-05
4.5019e-05
4.50195e-05
4.502e-05
4.50206e-05
4.50211e-05
4.50217e-05
4.50223e-05
4.50229e-05
4.50235e-05
4.50241e-05
4.50248e-05
4.50254e-05
4.50261e-05
4.50268e-05
4.50275e-05
4.50281e-05
4.50288e-05
4.50296e-05
4.50303e-05
4.5031e-05
4.50317e-05
4.50324e-05
4.50331e-05
4.50338e-05
4.50345e-05
4.50352e-05
4.50359e-05
4.50366e-05
4.50373e-05
4.50379e-05
4.50386e-05
4.50392e-05
4.50398e-05
4.50403e-05
4.50409e-05
4.50414e-05
4.50419e-05
4.50424e-05
4.50428e-05
4.50433e-05
4.50437e-05
4.5044e-05
4.50444e-05
4.50447e-05
4.5045e-05
4.50452e-05
4.50455e-05
4.50457e-05
4.50459e-05
4.5046e-05
4.50462e-05
4.50463e-05
4.50465e-05
4.50466e-05
4.50467e-05
4.50468e-05
4.50468e-05
4.50469e-05
4.5047e-05
4.5047e-05
4.50471e-05
4.50471e-05
4.50472e-05
4.50472e-05
4.50472e-05
4.50473e-05
4.50473e-05
4.50474e-05
4.50474e-05
4.50475e-05
4.50475e-05
4.50476e-05
4.50477e-05
4.50477e-05
4.50478e-05
4.50478e-05
4.50479e-05
4.5048e-05
4.5048e-05
4.50481e-05
4.50482e-05
4.50482e-05
4.50483e-05
4.50484e-05
4.50485e-05
4.50486e-05
4.50486e-05
4.50487e-05
4.50488e-05
4.50489e-05
4.5049e-05
4.50491e-05
4.50492e-05
4.50493e-05
4.50495e-05
4.50496e-05
4.50497e-05
4.50498e-05
4.505e-05
4.50501e-05
4.50503e-05
4.50504e-05
4.50506e-05
4.50508e-05
4.50082e-05
4.50082e-05
4.50082e-05
4.50083e-05
4.50083e-05
4.50083e-05
4.50083e-05
4.50083e-05
4.50083e-05
4.50083e-05
4.50083e-05
4.50083e-05
4.50083e-05
4.50083e-05
4.50083e-05
4.50083e-05
4.50083e-05
4.50083e-05
4.50084e-05
4.50084e-05
4.50085e-05
4.50085e-05
4.50086e-05
4.50086e-05
4.50087e-05
4.50088e-05
4.50089e-05
4.5009e-05
4.50091e-05
4.50092e-05
4.50094e-05
4.50095e-05
4.50096e-05
4.50098e-05
4.501e-05
4.50101e-05
4.50103e-05
4.50105e-05
4.50107e-05
4.50109e-05
4.50112e-05
4.50114e-05
4.50116e-05
4.50119e-05
4.50122e-05
4.50124e-05
4.50127e-05
4.5013e-05
4.50134e-05
4.50137e-05
4.5014e-05
4.50144e-05
4.50147e-05
4.50151e-05
4.50155e-05
4.50159e-05
4.50163e-05
4.50167e-05
4.50172e-05
4.50176e-05
4.50181e-05
4.50186e-05
4.50191e-05
4.50196e-05
4.50201e-05
4.50207e-05
4.50212e-05
4.50218e-05
4.50224e-05
4.5023e-05
4.50236e-05
4.50242e-05
4.50248e-05
4.50255e-05
4.50261e-05
4.50268e-05
4.50275e-05
4.50282e-05
4.50289e-05
4.50296e-05
4.50303e-05
4.5031e-05
4.50317e-05
4.50324e-05
4.50331e-05
4.50339e-05
4.50346e-05
4.50353e-05
4.50359e-05
4.50366e-05
4.50373e-05
4.50379e-05
4.50386e-05
4.50392e-05
4.50398e-05
4.50404e-05
4.50409e-05
4.50415e-05
4.5042e-05
4.50425e-05
4.50429e-05
4.50434e-05
4.50438e-05
4.50441e-05
4.50445e-05
4.50448e-05
4.50451e-05
4.50454e-05
4.50457e-05
4.50459e-05
4.50461e-05
4.50463e-05
4.50465e-05
4.50467e-05
4.50468e-05
4.5047e-05
4.50471e-05
4.50472e-05
4.50473e-05
4.50474e-05
4.50475e-05
4.50476e-05
4.50477e-05
4.50478e-05
4.50479e-05
4.5048e-05
4.5048e-05
4.50481e-05
4.50482e-05
4.50483e-05
4.50484e-05
4.50485e-05
4.50486e-05
4.50487e-05
4.50488e-05
4.50489e-05
4.5049e-05
4.50491e-05
4.50492e-05
4.50494e-05
4.50495e-05
4.50496e-05
4.50497e-05
4.50498e-05
4.505e-05
4.50501e-05
4.50502e-05
4.50503e-05
4.50504e-05
4.50506e-05
4.50507e-05
4.50508e-05
4.5051e-05
4.50511e-05
4.50512e-05
4.50514e-05
4.50515e-05
4.50516e-05
4.50518e-05
4.5052e-05
4.50521e-05
4.50523e-05
4.50525e-05
4.50526e-05
4.50528e-05
4.5053e-05
4.50532e-05
4.50085e-05
4.50085e-05
4.50085e-05
4.50086e-05
4.50086e-05
4.50086e-05
4.50086e-05
4.50086e-05
4.50086e-05
4.50085e-05
4.50085e-05
4.50085e-05
4.50085e-05
4.50085e-05
4.50085e-05
4.50085e-05
4.50085e-05
4.50085e-05
4.50086e-05
4.50086e-05
4.50086e-05
4.50087e-05
4.50087e-05
4.50087e-05
4.50088e-05
4.50089e-05
4.50089e-05
4.5009e-05
4.50091e-05
4.50092e-05
4.50093e-05
4.50094e-05
4.50096e-05
4.50097e-05
4.50099e-05
4.501e-05
4.50102e-05
4.50104e-05
4.50106e-05
4.50108e-05
4.5011e-05
4.50112e-05
4.50114e-05
4.50117e-05
4.50119e-05
4.50122e-05
4.50125e-05
4.50128e-05
4.50131e-05
4.50134e-05
4.50137e-05
4.5014e-05
4.50144e-05
4.50148e-05
4.50152e-05
4.50155e-05
4.5016e-05
4.50164e-05
4.50168e-05
4.50173e-05
4.50177e-05
4.50182e-05
4.50187e-05
4.50192e-05
4.50197e-05
4.50203e-05
4.50208e-05
4.50214e-05
4.50219e-05
4.50225e-05
4.50231e-05
4.50238e-05
4.50244e-05
4.5025e-05
4.50257e-05
4.50263e-05
4.5027e-05
4.50277e-05
4.50284e-05
4.50291e-05
4.50298e-05
4.50305e-05
4.50312e-05
4.50319e-05
4.50326e-05
4.50333e-05
4.5034e-05
4.50346e-05
4.50353e-05
4.5036e-05
4.50366e-05
4.50373e-05
4.50379e-05
4.50385e-05
4.50391e-05
4.50397e-05
4.50402e-05
4.50407e-05
4.50412e-05
4.50417e-05
4.50421e-05
4.50426e-05
4.5043e-05
4.50434e-05
4.50437e-05
4.5044e-05
4.50444e-05
4.50446e-05
4.50449e-05
4.50452e-05
4.50454e-05
4.50456e-05
4.50458e-05
4.5046e-05
4.50462e-05
4.50463e-05
4.50465e-05
4.50466e-05
4.50468e-05
4.50469e-05
4.5047e-05
4.50472e-05
4.50473e-05
4.50474e-05
4.50476e-05
4.50477e-05
4.50478e-05
4.50479e-05
4.50481e-05
4.50482e-05
4.50483e-05
4.50485e-05
4.50486e-05
4.50488e-05
4.50489e-05
4.5049e-05
4.50492e-05
4.50493e-05
4.50495e-05
4.50496e-05
4.50498e-05
4.50499e-05
4.50501e-05
4.50502e-05
4.50504e-05
4.50505e-05
4.50507e-05
4.50508e-05
4.5051e-05
4.50511e-05
4.50513e-05
4.50514e-05
4.50516e-05
4.50518e-05
4.50519e-05
4.50521e-05
4.50523e-05
4.50524e-05
4.50526e-05
4.50528e-05
4.5053e-05
4.50532e-05
4.50534e-05
4.50536e-05
4.50539e-05
4.50541e-05
4.50543e-05
4.50083e-05
4.50083e-05
4.50083e-05
4.50084e-05
4.50084e-05
4.50084e-05
4.50084e-05
4.50084e-05
4.50084e-05
4.50084e-05
4.50084e-05
4.50084e-05
4.50084e-05
4.50084e-05
4.50084e-05
4.50084e-05
4.50084e-05
4.50084e-05
4.50085e-05
4.50085e-05
4.50085e-05
4.50086e-05
4.50086e-05
4.50087e-05
4.50087e-05
4.50088e-05
4.50089e-05
4.5009e-05
4.50091e-05
4.50092e-05
4.50093e-05
4.50094e-05
4.50095e-05
4.50097e-05
4.50098e-05
4.501e-05
4.50102e-05
4.50103e-05
4.50105e-05
4.50107e-05
4.50109e-05
4.50112e-05
4.50114e-05
4.50116e-05
4.50119e-05
4.50122e-05
4.50125e-05
4.50128e-05
4.50131e-05
4.50134e-05
4.50137e-05
4.5014e-05
4.50144e-05
4.50148e-05
4.50152e-05
4.50156e-05
4.5016e-05
4.50164e-05
4.50168e-05
4.50173e-05
4.50177e-05
4.50182e-05
4.50187e-05
4.50192e-05
4.50197e-05
4.50203e-05
4.50208e-05
4.50214e-05
4.5022e-05
4.50226e-05
4.50232e-05
4.50238e-05
4.50244e-05
4.5025e-05
4.50257e-05
4.50264e-05
4.5027e-05
4.50277e-05
4.50284e-05
4.50291e-05
4.50298e-05
4.50305e-05
4.50312e-05
4.50318e-05
4.50325e-05
4.50332e-05
4.50339e-05
4.50346e-05
4.50352e-05
4.50359e-05
4.50365e-05
4.50372e-05
4.50378e-05
4.50384e-05
4.50389e-05
4.50395e-05
4.504e-05
4.50406e-05
4.5041e-05
4.50415e-05
4.5042e-05
4.50424e-05
4.50428e-05
4.50432e-05
4.50435e-05
4.50439e-05
4.50442e-05
4.50445e-05
4.50448e-05
4.5045e-05
4.50453e-05
4.50455e-05
4.50457e-05
4.5046e-05
4.50462e-05
4.50463e-05
4.50465e-05
4.50467e-05
4.50469e-05
4.50471e-05
4.50472e-05
4.50474e-05
4.50475e-05
4.50477e-05
4.50479e-05
4.5048e-05
4.50482e-05
4.50484e-05
4.50485e-05
4.50487e-05
4.50489e-05
4.50491e-05
4.50492e-05
4.50494e-05
4.50496e-05
4.50498e-05
4.50499e-05
4.50501e-05
4.50503e-05
4.50505e-05
4.50506e-05
4.50508e-05
4.5051e-05
4.50512e-05
4.50513e-05
4.50515e-05
4.50517e-05
4.50518e-05
4.5052e-05
4.50522e-05
4.50523e-05
4.50525e-05
4.50527e-05
4.50528e-05
4.5053e-05
4.50532e-05
4.50534e-05
4.50536e-05
4.50537e-05
4.50539e-05
4.50541e-05
4.50543e-05
4.50546e-05
4.50548e-05
4.5055e-05
4.50552e-05
4.50555e-05
4.50082e-05
4.50082e-05
4.50083e-05
4.50083e-05
4.50083e-05
4.50084e-05
4.50084e-05
4.50084e-05
4.50084e-05
4.50084e-05
4.50084e-05
4.50084e-05
4.50084e-05
4.50084e-05
4.50084e-05
4.50084e-05
4.50084e-05
4.50084e-05
4.50084e-05
4.50085e-05
4.50085e-05
4.50085e-05
4.50086e-05
4.50086e-05
4.50087e-05
4.50087e-05
4.50088e-05
4.50089e-05
4.5009e-05
4.50091e-05
4.50092e-05
4.50093e-05
4.50094e-05
4.50095e-05
4.50096e-05
4.50098e-05
4.50099e-05
4.50101e-05
4.50103e-05
4.50105e-05
4.50107e-05
4.50109e-05
4.50111e-05
4.50114e-05
4.50116e-05
4.50119e-05
4.50121e-05
4.50124e-05
4.50127e-05
4.5013e-05
4.50133e-05
4.50137e-05
4.5014e-05
4.50144e-05
4.50148e-05
4.50152e-05
4.50156e-05
4.5016e-05
4.50164e-05
4.50169e-05
4.50173e-05
4.50178e-05
4.50183e-05
4.50188e-05
4.50193e-05
4.50198e-05
4.50204e-05
4.50209e-05
4.50215e-05
4.50221e-05
4.50227e-05
4.50233e-05
4.50239e-05
4.50246e-05
4.50252e-05
4.50259e-05
4.50265e-05
4.50272e-05
4.50279e-05
4.50286e-05
4.50292e-05
4.50299e-05
4.50306e-05
4.50313e-05
4.5032e-05
4.50327e-05
4.50333e-05
4.5034e-05
4.50347e-05
4.50353e-05
4.50359e-05
4.50366e-05
4.50372e-05
4.50378e-05
4.50383e-05
4.50389e-05
4.50394e-05
4.50399e-05
4.50404e-05
4.50409e-05
4.50413e-05
4.50418e-05
4.50422e-05
4.50426e-05
4.5043e-05
4.50433e-05
4.50436e-05
4.5044e-05
4.50443e-05
4.50445e-05
4.50448e-05
4.50451e-05
4.50453e-05
4.50456e-05
4.50458e-05
4.5046e-05
4.50463e-05
4.50465e-05
4.50467e-05
4.50469e-05
4.50471e-05
4.50473e-05
4.50476e-05
4.50478e-05
4.5048e-05
4.50482e-05
4.50484e-05
4.50486e-05
4.50488e-05
4.50491e-05
4.50493e-05
4.50495e-05
4.50497e-05
4.50499e-05
4.50501e-05
4.50504e-05
4.50506e-05
4.50508e-05
4.5051e-05
4.50512e-05
4.50514e-05
4.50516e-05
4.50518e-05
4.5052e-05
4.50522e-05
4.50524e-05
4.50526e-05
4.50528e-05
4.5053e-05
4.50532e-05
4.50534e-05
4.50536e-05
4.50538e-05
4.5054e-05
4.50542e-05
4.50544e-05
4.50546e-05
4.50548e-05
4.5055e-05
4.50552e-05
4.50554e-05
4.50556e-05
4.50558e-05
4.5056e-05
4.50563e-05
4.50565e-05
4.50568e-05
4.50079e-05
4.50079e-05
4.5008e-05
4.5008e-05
4.50081e-05
4.50081e-05
4.50081e-05
4.50081e-05
4.50081e-05
4.50082e-05
4.50082e-05
4.50082e-05
4.50082e-05
4.50082e-05
4.50082e-05
4.50082e-05
4.50082e-05
4.50082e-05
4.50083e-05
4.50083e-05
4.50083e-05
4.50084e-05
4.50084e-05
4.50084e-05
4.50085e-05
4.50086e-05
4.50086e-05
4.50087e-05
4.50088e-05
4.50089e-05
4.5009e-05
4.50091e-05
4.50092e-05
4.50093e-05
4.50094e-05
4.50096e-05
4.50097e-05
4.50099e-05
4.50101e-05
4.50103e-05
4.50105e-05
4.50107e-05
4.50109e-05
4.50111e-05
4.50114e-05
4.50116e-05
4.50119e-05
4.50122e-05
4.50125e-05
4.50128e-05
4.50131e-05
4.50134e-05
4.50137e-05
4.50141e-05
4.50145e-05
4.50149e-05
4.50153e-05
4.50157e-05
4.50161e-05
4.50165e-05
4.5017e-05
4.50175e-05
4.50179e-05
4.50184e-05
4.5019e-05
4.50195e-05
4.502e-05
4.50206e-05
4.50212e-05
4.50217e-05
4.50223e-05
4.50229e-05
4.50236e-05
4.50242e-05
4.50248e-05
4.50255e-05
4.50261e-05
4.50268e-05
4.50275e-05
4.50282e-05
4.50288e-05
4.50295e-05
4.50302e-05
4.50309e-05
4.50316e-05
4.50322e-05
4.50329e-05
4.50336e-05
4.50342e-05
4.50348e-05
4.50355e-05
4.50361e-05
4.50367e-05
4.50373e-05
4.50378e-05
4.50384e-05
4.50389e-05
4.50394e-05
4.50399e-05
4.50404e-05
4.50409e-05
4.50413e-05
4.50417e-05
4.50421e-05
4.50425e-05
4.50429e-05
4.50432e-05
4.50436e-05
4.50439e-05
4.50442e-05
4.50445e-05
4.50448e-05
4.50451e-05
4.50454e-05
4.50456e-05
4.50459e-05
4.50462e-05
4.50464e-05
4.50467e-05
4.50469e-05
4.50472e-05
4.50475e-05
4.50477e-05
4.5048e-05
4.50482e-05
4.50485e-05
4.50487e-05
4.5049e-05
4.50493e-05
4.50495e-05
4.50498e-05
4.50501e-05
4.50503e-05
4.50506e-05
4.50508e-05
4.50511e-05
4.50513e-05
4.50516e-05
4.50519e-05
4.50521e-05
4.50523e-05
4.50526e-05
4.50528e-05
4.50531e-05
4.50533e-05
4.50535e-05
4.50537e-05
4.5054e-05
4.50542e-05
4.50544e-05
4.50546e-05
4.50548e-05
4.5055e-05
4.50553e-05
4.50555e-05
4.50557e-05
4.50559e-05
4.50561e-05
4.50563e-05
4.50566e-05
4.50568e-05
4.5057e-05
4.50572e-05
4.50575e-05
4.50577e-05
4.50579e-05
4.50582e-05
4.50076e-05
4.50077e-05
4.50077e-05
4.50078e-05
4.50078e-05
4.50078e-05
4.50079e-05
4.50079e-05
4.50079e-05
4.50079e-05
4.5008e-05
4.5008e-05
4.5008e-05
4.5008e-05
4.5008e-05
4.5008e-05
4.5008e-05
4.50081e-05
4.50081e-05
4.50081e-05
4.50081e-05
4.50082e-05
4.50082e-05
4.50083e-05
4.50083e-05
4.50084e-05
4.50084e-05
4.50085e-05
4.50086e-05
4.50087e-05
4.50088e-05
4.50089e-05
4.5009e-05
4.50091e-05
4.50092e-05
4.50094e-05
4.50095e-05
4.50097e-05
4.50098e-05
4.501e-05
4.50102e-05
4.50104e-05
4.50106e-05
4.50108e-05
4.50111e-05
4.50113e-05
4.50116e-05
4.50118e-05
4.50121e-05
4.50124e-05
4.50127e-05
4.50131e-05
4.50134e-05
4.50137e-05
4.50141e-05
4.50145e-05
4.50149e-05
4.50153e-05
4.50157e-05
4.50161e-05
4.50166e-05
4.5017e-05
4.50175e-05
4.5018e-05
4.50185e-05
4.50191e-05
4.50196e-05
4.50201e-05
4.50207e-05
4.50213e-05
4.50219e-05
4.50225e-05
4.50231e-05
4.50237e-05
4.50244e-05
4.5025e-05
4.50257e-05
4.50263e-05
4.5027e-05
4.50277e-05
4.50283e-05
4.5029e-05
4.50297e-05
4.50304e-05
4.5031e-05
4.50317e-05
4.50324e-05
4.5033e-05
4.50337e-05
4.50343e-05
4.50349e-05
4.50356e-05
4.50362e-05
4.50367e-05
4.50373e-05
4.50379e-05
4.50384e-05
4.50389e-05
4.50394e-05
4.50399e-05
4.50404e-05
4.50408e-05
4.50413e-05
4.50417e-05
4.50421e-05
4.50425e-05
4.50429e-05
4.50432e-05
4.50436e-05
4.50439e-05
4.50442e-05
4.50446e-05
4.50449e-05
4.50452e-05
4.50455e-05
4.50458e-05
4.50461e-05
4.50464e-05
4.50467e-05
4.5047e-05
4.50473e-05
4.50476e-05
4.50479e-05
4.50482e-05
4.50485e-05
4.50489e-05
4.50492e-05
4.50495e-05
4.50498e-05
4.50501e-05
4.50504e-05
4.50507e-05
4.5051e-05
4.50513e-05
4.50516e-05
4.50519e-05
4.50522e-05
4.50525e-05
4.50528e-05
4.50531e-05
4.50533e-05
4.50536e-05
4.50539e-05
4.50542e-05
4.50544e-05
4.50547e-05
4.50549e-05
4.50552e-05
4.50554e-05
4.50557e-05
4.50559e-05
4.50562e-05
4.50564e-05
4.50566e-05
4.50569e-05
4.50571e-05
4.50573e-05
4.50576e-05
4.50578e-05
4.50581e-05
4.50583e-05
4.50585e-05
4.50588e-05
4.5059e-05
4.50593e-05
4.50595e-05
4.50597e-05
4.50072e-05
4.50073e-05
4.50073e-05
4.50074e-05
4.50075e-05
4.50075e-05
4.50075e-05
4.50076e-05
4.50076e-05
4.50076e-05
4.50076e-05
4.50077e-05
4.50077e-05
4.50077e-05
4.50077e-05
4.50077e-05
4.50078e-05
4.50078e-05
4.50078e-05
4.50079e-05
4.50079e-05
4.50079e-05
4.5008e-05
4.5008e-05
4.50081e-05
4.50081e-05
4.50082e-05
4.50083e-05
4.50084e-05
4.50084e-05
4.50085e-05
4.50086e-05
4.50087e-05
4.50089e-05
4.5009e-05
4.50091e-05
4.50093e-05
4.50094e-05
4.50096e-05
4.50097e-05
4.50099e-05
4.50101e-05
4.50103e-05
4.50105e-05
4.50108e-05
4.5011e-05
4.50113e-05
4.50115e-05
4.50118e-05
4.50121e-05
4.50124e-05
4.50127e-05
4.5013e-05
4.50134e-05
4.50137e-05
4.50141e-05
4.50145e-05
4.50149e-05
4.50153e-05
4.50157e-05
4.50162e-05
4.50166e-05
4.50171e-05
4.50176e-05
4.50181e-05
4.50186e-05
4.50192e-05
4.50197e-05
4.50203e-05
4.50209e-05
4.50214e-05
4.5022e-05
4.50227e-05
4.50233e-05
4.50239e-05
4.50246e-05
4.50252e-05
4.50259e-05
4.50265e-05
4.50272e-05
4.50279e-05
4.50285e-05
4.50292e-05
4.50299e-05
4.50306e-05
4.50312e-05
4.50319e-05
4.50325e-05
4.50332e-05
4.50338e-05
4.50344e-05
4.50351e-05
4.50357e-05
4.50362e-05
4.50368e-05
4.50374e-05
4.50379e-05
4.50385e-05
4.5039e-05
4.50395e-05
4.50399e-05
4.50404e-05
4.50409e-05
4.50413e-05
4.50417e-05
4.50421e-05
4.50425e-05
4.50429e-05
4.50433e-05
4.50437e-05
4.50441e-05
4.50444e-05
4.50448e-05
4.50452e-05
4.50455e-05
4.50459e-05
4.50462e-05
4.50466e-05
4.50469e-05
4.50472e-05
4.50476e-05
4.5048e-05
4.50483e-05
4.50487e-05
4.5049e-05
4.50494e-05
4.50497e-05
4.50501e-05
4.50504e-05
4.50508e-05
4.50511e-05
4.50515e-05
4.50518e-05
4.50522e-05
4.50525e-05
4.50529e-05
4.50532e-05
4.50535e-05
4.50539e-05
4.50542e-05
4.50545e-05
4.50548e-05
4.50551e-05
4.50554e-05
4.50557e-05
4.5056e-05
4.50563e-05
4.50566e-05
4.50569e-05
4.50571e-05
4.50574e-05
4.50577e-05
4.50579e-05
4.50582e-05
4.50584e-05
4.50587e-05
4.50589e-05
4.50592e-05
4.50594e-05
4.50597e-05
4.50599e-05
4.50602e-05
4.50604e-05
4.50607e-05
4.50609e-05
4.50612e-05
4.50614e-05
4.50068e-05
4.50069e-05
4.5007e-05
4.5007e-05
4.50071e-05
4.50071e-05
4.50072e-05
4.50072e-05
4.50072e-05
4.50073e-05
4.50073e-05
4.50073e-05
4.50074e-05
4.50074e-05
4.50074e-05
4.50075e-05
4.50075e-05
4.50075e-05
4.50076e-05
4.50076e-05
4.50076e-05
4.50077e-05
4.50077e-05
4.50078e-05
4.50078e-05
4.50079e-05
4.5008e-05
4.5008e-05
4.50081e-05
4.50082e-05
4.50083e-05
4.50084e-05
4.50085e-05
4.50086e-05
4.50087e-05
4.50089e-05
4.5009e-05
4.50091e-05
4.50093e-05
4.50095e-05
4.50096e-05
4.50098e-05
4.501e-05
4.50102e-05
4.50105e-05
4.50107e-05
4.50109e-05
4.50112e-05
4.50115e-05
4.50117e-05
4.5012e-05
4.50124e-05
4.50127e-05
4.5013e-05
4.50134e-05
4.50137e-05
4.50141e-05
4.50145e-05
4.50149e-05
4.50153e-05
4.50158e-05
4.50162e-05
4.50167e-05
4.50172e-05
4.50177e-05
4.50182e-05
4.50187e-05
4.50193e-05
4.50198e-05
4.50204e-05
4.5021e-05
4.50216e-05
4.50222e-05
4.50228e-05
4.50234e-05
4.50241e-05
4.50247e-05
4.50254e-05
4.5026e-05
4.50267e-05
4.50274e-05
4.5028e-05
4.50287e-05
4.50294e-05
4.50301e-05
4.50307e-05
4.50314e-05
4.5032e-05
4.50327e-05
4.50333e-05
4.50339e-05
4.50346e-05
4.50352e-05
4.50358e-05
4.50363e-05
4.50369e-05
4.50375e-05
4.5038e-05
4.50385e-05
4.5039e-05
4.50395e-05
4.504e-05
4.50405e-05
4.5041e-05
4.50414e-05
4.50419e-05
4.50423e-05
4.50427e-05
4.50431e-05
4.50436e-05
4.5044e-05
4.50444e-05
4.50448e-05
4.50452e-05
4.50456e-05
4.5046e-05
4.50464e-05
4.50468e-05
4.50472e-05
4.50476e-05
4.5048e-05
4.50484e-05
4.50488e-05
4.50492e-05
4.50496e-05
4.505e-05
4.50504e-05
4.50508e-05
4.50512e-05
4.50516e-05
4.5052e-05
4.50524e-05
4.50528e-05
4.50532e-05
4.50536e-05
4.5054e-05
4.50543e-05
4.50547e-05
4.50551e-05
4.50554e-05
4.50558e-05
4.50562e-05
4.50565e-05
4.50568e-05
4.50572e-05
4.50575e-05
4.50578e-05
4.50581e-05
4.50584e-05
4.50587e-05
4.5059e-05
4.50593e-05
4.50596e-05
4.50599e-05
4.50601e-05
4.50604e-05
4.50607e-05
4.50609e-05
4.50612e-05
4.50615e-05
4.50617e-05
4.5062e-05
4.50622e-05
4.50625e-05
4.50627e-05
4.5063e-05
4.50632e-05
4.50063e-05
4.50064e-05
4.50065e-05
4.50066e-05
4.50067e-05
4.50067e-05
4.50068e-05
4.50068e-05
4.50068e-05
4.50069e-05
4.50069e-05
4.5007e-05
4.5007e-05
4.5007e-05
4.50071e-05
4.50071e-05
4.50071e-05
4.50072e-05
4.50072e-05
4.50073e-05
4.50073e-05
4.50074e-05
4.50074e-05
4.50075e-05
4.50075e-05
4.50076e-05
4.50077e-05
4.50078e-05
4.50078e-05
4.50079e-05
4.5008e-05
4.50081e-05
4.50082e-05
4.50083e-05
4.50085e-05
4.50086e-05
4.50087e-05
4.50089e-05
4.5009e-05
4.50092e-05
4.50094e-05
4.50095e-05
4.50097e-05
4.50099e-05
4.50102e-05
4.50104e-05
4.50106e-05
4.50109e-05
4.50111e-05
4.50114e-05
4.50117e-05
4.5012e-05
4.50123e-05
4.50127e-05
4.5013e-05
4.50134e-05
4.50137e-05
4.50141e-05
4.50145e-05
4.50149e-05
4.50154e-05
4.50158e-05
4.50163e-05
4.50168e-05
4.50173e-05
4.50178e-05
4.50183e-05
4.50188e-05
4.50194e-05
4.502e-05
4.50205e-05
4.50211e-05
4.50217e-05
4.50223e-05
4.5023e-05
4.50236e-05
4.50243e-05
4.50249e-05
4.50256e-05
4.50262e-05
4.50269e-05
4.50276e-05
4.50282e-05
4.50289e-05
4.50296e-05
4.50302e-05
4.50309e-05
4.50316e-05
4.50322e-05
4.50328e-05
4.50335e-05
4.50341e-05
4.50347e-05
4.50353e-05
4.50359e-05
4.50365e-05
4.50371e-05
4.50376e-05
4.50382e-05
4.50387e-05
4.50392e-05
4.50397e-05
4.50402e-05
4.50407e-05
4.50412e-05
4.50417e-05
4.50421e-05
4.50426e-05
4.5043e-05
4.50435e-05
4.5044e-05
4.50444e-05
4.50448e-05
4.50453e-05
4.50457e-05
4.50462e-05
4.50466e-05
4.50471e-05
4.50475e-05
4.5048e-05
4.50484e-05
4.50489e-05
4.50493e-05
4.50498e-05
4.50503e-05
4.50507e-05
4.50512e-05
4.50516e-05
4.50521e-05
4.50525e-05
4.5053e-05
4.50534e-05
4.50539e-05
4.50543e-05
4.50548e-05
4.50552e-05
4.50556e-05
4.5056e-05
4.50564e-05
4.50569e-05
4.50572e-05
4.50576e-05
4.5058e-05
4.50584e-05
4.50588e-05
4.50591e-05
4.50595e-05
4.50598e-05
4.50602e-05
4.50605e-05
4.50608e-05
4.50611e-05
4.50614e-05
4.50617e-05
4.5062e-05
4.50623e-05
4.50626e-05
4.50629e-05
4.50631e-05
4.50634e-05
4.50637e-05
4.50639e-05
4.50642e-05
4.50644e-05
4.50647e-05
4.50649e-05
4.50651e-05
4.50059e-05
4.5006e-05
4.50061e-05
4.50061e-05
4.50062e-05
4.50063e-05
4.50063e-05
4.50064e-05
4.50064e-05
4.50065e-05
4.50065e-05
4.50066e-05
4.50066e-05
4.50066e-05
4.50067e-05
4.50067e-05
4.50068e-05
4.50068e-05
4.50069e-05
4.50069e-05
4.5007e-05
4.50071e-05
4.50071e-05
4.50072e-05
4.50072e-05
4.50073e-05
4.50074e-05
4.50075e-05
4.50076e-05
4.50076e-05
4.50077e-05
4.50078e-05
4.50079e-05
4.50081e-05
4.50082e-05
4.50083e-05
4.50084e-05
4.50086e-05
4.50087e-05
4.50089e-05
4.50091e-05
4.50093e-05
4.50094e-05
4.50097e-05
4.50099e-05
4.50101e-05
4.50103e-05
4.50106e-05
4.50108e-05
4.50111e-05
4.50114e-05
4.50117e-05
4.5012e-05
4.50123e-05
4.50127e-05
4.5013e-05
4.50134e-05
4.50138e-05
4.50141e-05
4.50146e-05
4.5015e-05
4.50154e-05
4.50159e-05
4.50164e-05
4.50169e-05
4.50174e-05
4.50179e-05
4.50184e-05
4.5019e-05
4.50195e-05
4.50201e-05
4.50207e-05
4.50213e-05
4.50219e-05
4.50225e-05
4.50232e-05
4.50238e-05
4.50245e-05
4.50251e-05
4.50258e-05
4.50264e-05
4.50271e-05
4.50278e-05
4.50284e-05
4.50291e-05
4.50298e-05
4.50304e-05
4.50311e-05
4.50317e-05
4.50324e-05
4.5033e-05
4.50337e-05
4.50343e-05
4.50349e-05
4.50355e-05
4.50361e-05
4.50367e-05
4.50373e-05
4.50378e-05
4.50384e-05
4.50389e-05
4.50395e-05
4.504e-05
4.50405e-05
4.5041e-05
4.50415e-05
4.5042e-05
4.50425e-05
4.5043e-05
4.50435e-05
4.5044e-05
4.50445e-05
4.5045e-05
4.50455e-05
4.5046e-05
4.50465e-05
4.5047e-05
4.50475e-05
4.5048e-05
4.50485e-05
4.5049e-05
4.50495e-05
4.505e-05
4.50506e-05
4.50511e-05
4.50516e-05
4.50521e-05
4.50526e-05
4.50531e-05
4.50536e-05
4.50541e-05
4.50546e-05
4.50551e-05
4.50556e-05
4.50561e-05
4.50566e-05
4.5057e-05
4.50575e-05
4.5058e-05
4.50584e-05
4.50589e-05
4.50593e-05
4.50597e-05
4.50601e-05
4.50605e-05
4.50609e-05
4.50613e-05
4.50617e-05
4.5062e-05
4.50624e-05
4.50627e-05
4.50631e-05
4.50634e-05
4.50637e-05
4.5064e-05
4.50643e-05
4.50646e-05
4.50649e-05
4.50652e-05
4.50655e-05
4.50657e-05
4.5066e-05
4.50663e-05
4.50665e-05
4.50668e-05
4.5067e-05
4.50672e-05
4.50054e-05
4.50055e-05
4.50056e-05
4.50057e-05
4.50057e-05
4.50058e-05
4.50059e-05
4.50059e-05
4.5006e-05
4.5006e-05
4.50061e-05
4.50061e-05
4.50062e-05
4.50062e-05
4.50063e-05
4.50063e-05
4.50064e-05
4.50065e-05
4.50065e-05
4.50066e-05
4.50066e-05
4.50067e-05
4.50068e-05
4.50068e-05
4.50069e-05
4.5007e-05
4.50071e-05
4.50072e-05
4.50073e-05
4.50073e-05
4.50074e-05
4.50075e-05
4.50077e-05
4.50078e-05
4.50079e-05
4.5008e-05
4.50082e-05
4.50083e-05
4.50085e-05
4.50086e-05
4.50088e-05
4.5009e-05
4.50092e-05
4.50094e-05
4.50096e-05
4.50098e-05
4.501e-05
4.50103e-05
4.50105e-05
4.50108e-05
4.50111e-05
4.50114e-05
4.50117e-05
4.5012e-05
4.50123e-05
4.50127e-05
4.5013e-05
4.50134e-05
4.50138e-05
4.50142e-05
4.50146e-05
4.50151e-05
4.50155e-05
4.5016e-05
4.50165e-05
4.5017e-05
4.50175e-05
4.5018e-05
4.50186e-05
4.50191e-05
4.50197e-05
4.50203e-05
4.50209e-05
4.50215e-05
4.50221e-05
4.50227e-05
4.50234e-05
4.5024e-05
4.50247e-05
4.50253e-05
4.5026e-05
4.50267e-05
4.50273e-05
4.5028e-05
4.50287e-05
4.50293e-05
4.503e-05
4.50307e-05
4.50313e-05
4.5032e-05
4.50326e-05
4.50333e-05
4.50339e-05
4.50345e-05
4.50352e-05
4.50358e-05
4.50364e-05
4.5037e-05
4.50376e-05
4.50381e-05
4.50387e-05
4.50393e-05
4.50398e-05
4.50404e-05
4.50409e-05
4.50415e-05
4.5042e-05
4.50426e-05
4.50431e-05
4.50437e-05
4.50442e-05
4.50447e-05
4.50453e-05
4.50458e-05
4.50464e-05
4.50469e-05
4.50475e-05
4.50481e-05
4.50486e-05
4.50492e-05
4.50497e-05
4.50503e-05
4.50509e-05
4.50514e-05
4.5052e-05
4.50526e-05
4.50532e-05
4.50537e-05
4.50543e-05
4.50548e-05
4.50554e-05
4.5056e-05
4.50565e-05
4.5057e-05
4.50576e-05
4.50581e-05
4.50586e-05
4.50591e-05
4.50596e-05
4.50601e-05
4.50606e-05
4.50611e-05
4.50616e-05
4.5062e-05
4.50624e-05
4.50629e-05
4.50633e-05
4.50637e-05
4.50641e-05
4.50645e-05
4.50648e-05
4.50652e-05
4.50655e-05
4.50659e-05
4.50662e-05
4.50665e-05
4.50668e-05
4.50671e-05
4.50674e-05
4.50677e-05
4.5068e-05
4.50682e-05
4.50685e-05
4.50687e-05
4.5069e-05
4.50691e-05
4.50694e-05
4.50049e-05
4.50051e-05
4.50051e-05
4.50052e-05
4.50053e-05
4.50053e-05
4.50054e-05
4.50054e-05
4.50055e-05
4.50056e-05
4.50056e-05
4.50057e-05
4.50058e-05
4.50058e-05
4.50059e-05
4.50059e-05
4.5006e-05
4.50061e-05
4.50061e-05
4.50062e-05
4.50063e-05
4.50064e-05
4.50064e-05
4.50065e-05
4.50066e-05
4.50067e-05
4.50068e-05
4.50069e-05
4.5007e-05
4.50071e-05
4.50072e-05
4.50073e-05
4.50074e-05
4.50075e-05
4.50076e-05
4.50078e-05
4.50079e-05
4.5008e-05
4.50082e-05
4.50084e-05
4.50085e-05
4.50087e-05
4.50089e-05
4.50091e-05
4.50093e-05
4.50095e-05
4.50098e-05
4.501e-05
4.50102e-05
4.50105e-05
4.50108e-05
4.50111e-05
4.50114e-05
4.50117e-05
4.5012e-05
4.50124e-05
4.50127e-05
4.50131e-05
4.50135e-05
4.50139e-05
4.50143e-05
4.50147e-05
4.50152e-05
4.50156e-05
4.50161e-05
4.50166e-05
4.50171e-05
4.50176e-05
4.50182e-05
4.50187e-05
4.50193e-05
4.50199e-05
4.50205e-05
4.50211e-05
4.50217e-05
4.50223e-05
4.5023e-05
4.50236e-05
4.50243e-05
4.50249e-05
4.50256e-05
4.50263e-05
4.50269e-05
4.50276e-05
4.50283e-05
4.5029e-05
4.50296e-05
4.50303e-05
4.5031e-05
4.50316e-05
4.50323e-05
4.50329e-05
4.50336e-05
4.50342e-05
4.50349e-05
4.50355e-05
4.50361e-05
4.50367e-05
4.50373e-05
4.5038e-05
4.50386e-05
4.50392e-05
4.50398e-05
4.50403e-05
4.50409e-05
4.50415e-05
4.50421e-05
4.50427e-05
4.50433e-05
4.50439e-05
4.50445e-05
4.50451e-05
4.50457e-05
4.50463e-05
4.50469e-05
4.50475e-05
4.50481e-05
4.50487e-05
4.50493e-05
4.505e-05
4.50506e-05
4.50512e-05
4.50518e-05
4.50525e-05
4.50531e-05
4.50537e-05
4.50544e-05
4.5055e-05