/*--------------------------------*- C++ -*----------------------------------*\
  =========                 |
  \\      /  F ield         | OpenFOAM: The Open Source CFD Toolbox
   \\    /   O peration     | Website:  https://openfoam.org
    \\  /    A nd           | Version:  13
     \\/     M anipulation  |
\*---------------------------------------------------------------------------*/
FoamFile
{
    format      ascii;
    class       volScalarField;
    location    "0.05";
    object      p;
}
// * * * * * * * * * * * * * * * * * * * * * * * * * * * * * * * * * * * * * //

dimensions      [0 2 -2 0 0 0 0];

internalField   nonuniform List<scalar> 
68864
(
0.343313
0.342913
0.342348
0.341827
0.34145
0.340871
0.34017
0.339483
0.338824
0.338159
0.337475
0.336778
0.336074
0.335361
0.334636
0.333898
0.333146
0.332378
0.331595
0.330794
0.329975
0.329135
0.328275
0.327392
0.326485
0.325552
0.324594
0.323606
0.32259
0.321543
0.320463
0.31935
0.318202
0.317017
0.315794
0.314531
0.313228
0.311882
0.310493
0.309059
0.307578
0.306049
0.304472
0.302843
0.301163
0.299429
0.297642
0.295798
0.293898
0.29194
0.289923
0.287845
0.285707
0.283505
0.281242
0.278913
0.27652
0.274062
0.271537
0.268944
0.266285
0.263557
0.260761
0.257895
0.254961
0.251957
0.248884
0.245741
0.24253
0.239248
0.235898
0.232479
0.228993
0.225439
0.221819
0.218132
0.214382
0.210567
0.20669
0.202752
0.198756
0.194701
0.190591
0.186426
0.182211
0.177945
0.173634
0.169278
0.164882
0.160447
0.155978
0.151478
0.14695
0.142397
0.137826
0.133238
0.12864
0.124033
0.119426
0.114821
0.110224
0.105639
0.101073
0.0965296
0.092016
0.0875355
0.0830959
0.0787006
0.0743573
0.0700694
0.0658446
0.0616862
0.0576018
0.0535944
0.0496715
0.0458358
0.0420943
0.0384494
0.0349079
0.0314716
0.0281467
0.0249346
0.0218409
0.0188665
0.0160162
0.0132904
0.0106932
0.00822441
0.00588737
0.00368148
0.00160908
-0.000330918
-0.00213699
-0.00381064
-0.00535122
-0.00676052
-0.00803873
-0.0091879
-0.0102089
-0.0111039
-0.0118745
-0.0125231
-0.0130517
-0.0134628
-0.0137589
-0.0139428
-0.0140169
-0.0139842
-0.0138475
-0.0136097
-0.0132736
-0.0128422
-0.0123186
-0.0117061
-0.011008
-0.0102282
-0.00937102
-0.00844111
-0.00744431
-0.0063875
-0.00528024
-0.00413187
-0.00296857
-0.00178334
-0.000755793
0.000442269
-0.000452166
0.624024
0.624141
0.623916
0.624029
0.62455
0.624467
0.624011
0.623563
0.623182
0.622779
0.622318
0.621814
0.621279
0.620713
0.620108
0.619461
0.618773
0.618042
0.617265
0.616441
0.615568
0.614644
0.613667
0.612635
0.611546
0.610397
0.609188
0.607915
0.606577
0.605171
0.603695
0.602147
0.600525
0.598827
0.59705
0.595191
0.59325
0.591222
0.589108
0.586903
0.584606
0.582215
0.579727
0.57714
0.574452
0.57166
0.568764
0.565759
0.562645
0.55942
0.556081
0.552626
0.549054
0.545363
0.54155
0.537615
0.533556
0.52937
0.525058
0.520616
0.516045
0.511342
0.506508
0.50154
0.496439
0.491202
0.485831
0.480324
0.474682
0.468903
0.462989
0.456939
0.450755
0.444435
0.437983
0.431397
0.424681
0.417834
0.41086
0.403759
0.396535
0.389189
0.381724
0.374144
0.366452
0.358651
0.350745
0.342739
0.334638
0.326445
0.318167
0.309809
0.301378
0.292878
0.284319
0.275705
0.267045
0.258346
0.249617
0.240866
0.232102
0.223333
0.214569
0.205819
0.197095
0.188404
0.179758
0.171166
0.16264
0.154189
0.145826
0.137558
0.1294
0.121358
0.113447
0.105673
0.0980492
0.0905834
0.0832873
0.0761679
0.0692364
0.0624992
0.0559667
0.0496442
0.0435413
0.0376624
0.0320159
0.0266053
0.0214376
0.0165153
0.0118441
0.0074256
0.0032639
-0.000640398
-0.00428446
-0.00766872
-0.0107918
-0.0136549
-0.016258
-0.018603
-0.0206911
-0.0225249
-0.0241065
-0.0254394
-0.0265262
-0.027371
-0.0279773
-0.0283492
-0.0284908
-0.0284065
-0.0281009
-0.0275787
-0.0268447
-0.0259043
-0.0247633
-0.023428
-0.0219055
-0.0202042
-0.0183342
-0.0163074
-0.0141409
-0.0118482
-0.0094769
-0.00698751
-0.00469856
-0.0017598
-0.00213945
0.931092
0.931627
0.931609
0.932449
0.934146
0.93457
0.9342
0.933828
0.933592
0.933319
0.932931
0.932456
0.931921
0.931323
0.930653
0.929906
0.929082
0.92818
0.927197
0.926131
0.924979
0.923739
0.922409
0.920986
0.919467
0.917851
0.916135
0.914315
0.912389
0.910354
0.908208
0.905948
0.903571
0.901074
0.898455
0.895709
0.892834
0.889828
0.886687
0.883408
0.879989
0.876426
0.872716
0.868856
0.864843
0.860674
0.856347
0.851858
0.847204
0.842383
0.837391
0.832226
0.826886
0.821367
0.815667
0.809783
0.803714
0.797457
0.791009
0.784369
0.777535
0.770504
0.763276
0.755848
0.748221
0.740391
0.73236
0.724124
0.715686
0.707043
0.698196
0.689145
0.679891
0.670434
0.660776
0.650917
0.64086
0.630606
0.620158
0.609518
0.59869
0.587677
0.576483
0.565112
0.55357
0.54186
0.52999
0.517965
0.505793
0.493479
0.481032
0.46846
0.455773
0.442979
0.430088
0.41711
0.404058
0.390941
0.377773
0.364565
0.351331
0.338084
0.324839
0.311609
0.298409
0.285255
0.272161
0.259144
0.24622
0.233403
0.220712
0.208162
0.195769
0.183549
0.17152
0.159696
0.148093
0.136727
0.125613
0.114765
0.104198
0.0939242
0.083958
0.0743099
0.0649931
0.0560168
0.0473923
0.0391272
0.0312311
0.0237098
0.0165709
0.0098185
0.00345821
-0.00250771
-0.00807579
-0.0132454
-0.0180149
-0.0223856
-0.0263578
-0.029934
-0.0331163
-0.0359086
-0.0383143
-0.0403384
-0.0419856
-0.0432617
-0.0441723
-0.0447238
-0.0449225
-0.0447753
-0.0442889
-0.0434705
-0.0423277
-0.0408682
-0.0391002
-0.037033
-0.0346768
-0.0320431
-0.0291462
-0.026002
-0.0226341
-0.0190609
-0.0153472
-0.0114329
-0.00775271
-0.00319098
-0.00298463
1.20739
1.20831
1.20854
1.20998
1.21257
1.21344
1.21324
1.21304
1.21302
1.21296
1.21274
1.2124
1.21199
1.21149
1.21089
1.21019
1.20939
1.20848
1.20746
1.20634
1.2051
1.20374
1.20226
1.20066
1.19893
1.19707
1.19508
1.19295
1.19069
1.18828
1.18572
1.18301
1.18015
1.17713
1.17395
1.1706
1.16709
1.1634
1.15954
1.15549
1.15127
1.14685
1.14224
1.13744
1.13244
1.12723
1.12182
1.1162
1.11036
1.10431
1.09803
1.09153
1.08481
1.07784
1.07065
1.06321
1.05554
1.04762
1.03945
1.03103
1.02236
1.01343
1.00425
0.994807
0.985103
0.975136
0.964905
0.954409
0.943647
0.932617
0.921321
0.909757
0.897926
0.88583
0.873468
0.860842
0.847955
0.834807
0.821403
0.807744
0.793835
0.77968
0.765283
0.750648
0.735784
0.720694
0.705387
0.689868
0.674148
0.658234
0.642136
0.625863
0.609428
0.59284
0.576113
0.559259
0.542292
0.525225
0.508075
0.490855
0.473585
0.456278
0.438955
0.421632
0.404328
0.387063
0.369857
0.352729
0.335701
0.318792
0.302025
0.28542
0.269
0.252784
0.236796
0.221056
0.205586
0.190406
0.175537
0.160998
0.146811
0.132992
0.119561
0.106533
0.0939279
0.0817583
0.0700407
0.0587869
0.0480107
0.0377217
0.0279312
0.0186467
0.0098766
0.00162602
-0.00609932
-0.0132967
-0.0199631
-0.0260982
-0.0317014
-0.0367748
-0.04132
-0.0453409
-0.0488413
-0.0518268
-0.0543027
-0.0562758
-0.0577529
-0.0587417
-0.0592497
-0.0592855
-0.0588573
-0.0579741
-0.0566445
-0.0548784
-0.0526855
-0.050077
-0.0470648
-0.0436628
-0.0398875
-0.0357586
-0.031305
-0.0265465
-0.0215642
-0.0162742
-0.0112289
-0.00497582
-0.00411664
1.48081
1.48243
1.48324
1.48567
1.48962
1.49129
1.49154
1.49179
1.49228
1.4927
1.49291
1.49297
1.49291
1.49275
1.49245
1.49202
1.49145
1.49073
1.48988
1.48888
1.48773
1.48642
1.48495
1.48332
1.48153
1.47957
1.47743
1.47511
1.47262
1.46993
1.46706
1.46399
1.46072
1.45725
1.45357
1.44968
1.44558
1.44125
1.4367
1.43192
1.4269
1.42164
1.41614
1.4104
1.4044
1.39814
1.39163
1.38484
1.37779
1.37046
1.36285
1.35496
1.34678
1.33831
1.32955
1.32049
1.31112
1.30145
1.29146
1.28117
1.27055
1.25962
1.24837
1.23679
1.22489
1.21265
1.20009
1.18719
1.17397
1.1604
1.14651
1.13228
1.11771
1.10282
1.08759
1.07203
1.05614
1.03993
1.02339
1.00654
0.989367
0.971888
0.954105
0.936024
0.917652
0.898996
0.880065
0.860867
0.841412
0.821711
0.801776
0.781618
0.761251
0.740689
0.719946
0.699038
0.677982
0.656794
0.635495
0.614101
0.592635
0.571115
0.549565
0.528006
0.506462
0.484956
0.463513
0.442158
0.420916
0.399814
0.378878
0.358133
0.337609
0.31733
0.297325
0.27762
0.258243
0.239218
0.220573
0.202332
0.184522
0.167165
0.150286
0.133905
0.118047
0.102728
0.0879703
0.0737894
0.0602024
0.0472234
0.0348659
0.0231412
0.0120594
0.00162868
-0.0081443
-0.0172545
-0.0256986
-0.0334748
-0.040583
-0.0470243
-0.0528015
-0.0579183
-0.0623803
-0.0661932
-0.0693647
-0.0719021
-0.0738147
-0.0751113
-0.0758018
-0.075896
-0.0754045
-0.0743374
-0.0727058
-0.0705202
-0.0677927
-0.0645354
-0.060762
-0.0564879
-0.0517321
-0.0465156
-0.0408711
-0.0348203
-0.0284586
-0.021674
-0.0151381
-0.00705299
-0.00538121
1.74864
1.75071
1.75183
1.75493
1.75985
1.76202
1.7625
1.76296
1.76372
1.7644
1.76483
1.76507
1.76518
1.76516
1.76498
1.76464
1.76413
1.76346
1.76261
1.7616
1.7604
1.75902
1.75744
1.75568
1.75372
1.75156
1.74919
1.74661
1.74381
1.7408
1.73756
1.73408
1.73037
1.72642
1.72223
1.71778
1.71308
1.70811
1.70288
1.69738
1.6916
1.68554
1.67918
1.67254
1.6656
1.65835
1.65079
1.64292
1.63473
1.62622
1.61737
1.6082
1.59868
1.58881
1.5786
1.56804
1.55711
1.54583
1.53418
1.52216
1.50976
1.49699
1.48383
1.4703
1.45637
1.44206
1.42736
1.41227
1.39678
1.38089
1.36461
1.34794
1.33087
1.3134
1.29554
1.27728
1.25864
1.23961
1.2202
1.2004
1.18023
1.15969
1.13879
1.11753
1.09592
1.07397
1.05169
1.02909
1.00618
0.982968
0.959472
0.935705
0.911681
0.887416
0.862928
0.838234
0.813353
0.788305
0.763112
0.737794
0.712377
0.686882
0.661337
0.635765
0.610196
0.584656
0.559175
0.53378
0.508503
0.483374
0.458426
0.433687
0.409193
0.384972
0.361061
0.337488
0.314289
0.291492
0.269133
0.247239
0.225844
0.204975
0.184662
0.164932
0.145812
0.127327
0.109501
0.0923548
0.0759113
0.0601865
0.0452
0.0309642
0.0174945
0.00479968
-0.0071091
-0.0182268
-0.0285466
-0.0380671
-0.0467858
-0.0547047
-0.061825
-0.0681522
-0.0736905
-0.0784483
-0.0824322
-0.0856526
-0.0881184
-0.0898411
-0.0908311
-0.0911004
-0.0906601
-0.0895226
-0.0876991
-0.0852022
-0.0820441
-0.0782384
-0.0737994
-0.0687429
-0.0630882
-0.0568581
-0.0500877
-0.042797
-0.0350953
-0.0268431
-0.0188326
-0.0089239
-0.00651235
2.00524
2.00801
2.00972
2.01379
2.01999
2.02294
2.02388
2.02482
2.0261
2.02729
2.02818
2.02884
2.02935
2.0297
2.02987
2.02985
2.02962
2.02921
2.02859
2.02776
2.02672
2.02546
2.02398
2.02227
2.02032
2.01814
2.01572
2.01304
2.01011
2.00692
2.00347
1.99974
1.99573
1.99144
1.98686
1.98199
1.97681
1.97133
1.96553
1.95941
1.95297
1.94619
1.93908
1.93162
1.92382
1.91565
1.90713
1.89824
1.88897
1.87932
1.86929
1.85887
1.84805
1.83682
1.82519
1.81315
1.80069
1.78781
1.7745
1.76076
1.74658
1.73196
1.7169
1.7014
1.68544
1.66903
1.65217
1.63485
1.61707
1.59883
1.58013
1.56097
1.54135
1.52127
1.50073
1.47973
1.45829
1.43639
1.41404
1.39125
1.36803
1.34437
1.32029
1.2958
1.27089
1.24559
1.2199
1.19384
1.16741
1.14064
1.11353
1.0861
1.05836
1.03035
1.00207
0.97354
0.944791
0.915843
0.886718
0.857443
0.828043
0.798546
0.768981
0.739378
0.709768
0.680182
0.650654
0.621217
0.591907
0.562758
0.533807
0.50509
0.476645
0.44851
0.42072
0.393316
0.366334
0.339812
0.313787
0.288296
0.263374
0.239057
0.215378
0.192371
0.170066
0.148495
0.127684
0.107661
0.0884506
0.0700748
0.0525538
0.0359061
0.0201472
0.00529073
-0.00865254
-0.0216737
-0.0337668
-0.0449278
-0.0551552
-0.0644495
-0.0728137
-0.0802523
-0.0867718
-0.0923802
-0.097087
-0.100903
-0.103839
-0.105908
-0.107122
-0.107494
-0.107039
-0.105767
-0.103694
-0.10083
-0.0971911
-0.0927894
-0.0876391
-0.0817561
-0.0751599
-0.0678718
-0.0599283
-0.051348
-0.0422533
-0.0324711
-0.022922
-0.0110936
-0.00784588
2.26405
2.26731
2.2694
2.2742
2.28141
2.28491
2.28613
2.28734
2.28894
2.29043
2.29159
2.29249
2.29321
2.29376
2.29409
2.2942
2.29409
2.29375
2.29319
2.29239
2.29134
2.29005
2.2885
2.2867
2.28463
2.28229
2.27967
2.27677
2.27358
2.27009
2.2663
2.2622
2.25779
2.25305
2.24798
2.24258
2.23684
2.23075
2.2243
2.21749
2.21031
2.20275
2.19481
2.18648
2.17776
2.16863
2.15909
2.14913
2.13875
2.12794
2.11669
2.105
2.09286
2.08026
2.06721
2.05368
2.03969
2.02521
2.01025
1.99481
1.97887
1.96243
1.94549
1.92805
1.9101
1.89163
1.87265
1.85316
1.83314
1.81261
1.79156
1.76998
1.74788
1.72527
1.70213
1.67848
1.65431
1.62964
1.60445
1.57877
1.55259
1.52592
1.49878
1.47116
1.44307
1.41454
1.38556
1.35616
1.32634
1.29612
1.26552
1.23455
1.20324
1.1716
1.13965
1.10742
1.07493
1.04221
1.00927
0.976163
0.942902
0.909521
0.876053
0.842531
0.808989
0.775465
0.741993
0.708613
0.675363
0.642284
0.609417
0.576803
0.544484
0.512504
0.480905
0.449731
0.419023
0.388828
0.359185
0.330138
0.301728
0.273997
0.246982
0.220723
0.195255
0.170615
0.146834
0.123945
0.101976
0.0809525
0.0608995
0.0418383
0.0237872
0.00676251
-0.00922303
-0.0241588
-0.0380375
-0.0508542
-0.062607
-0.0732961
-0.0829248
-0.0914981
-0.0990234
-0.10551
-0.110968
-0.11541
-0.11885
-0.1213
-0.122775
-0.12329
-0.122859
-0.121497
-0.119217
-0.116033
-0.111958
-0.107005
-0.101189
-0.0945231
-0.0870252
-0.078716
-0.0696318
-0.0597862
-0.0493141
-0.0380087
-0.026921
-0.0131547
-0.00911271
2.51264
2.51652
2.51912
2.52478
2.53314
2.53732
2.53892
2.54053
2.54258
2.5445
2.54605
2.5473
2.54836
2.54922
2.54983
2.5502
2.55032
2.55018
2.54979
2.54912
2.54819
2.54697
2.54548
2.54368
2.54159
2.5392
2.53649
2.53346
2.5301
2.52641
2.52238
2.51801
2.51327
2.50818
2.50271
2.49686
2.49064
2.48401
2.47699
2.46956
2.46171
2.45344
2.44474
2.4356
2.42601
2.41597
2.40547
2.3945
2.38305
2.37112
2.3587
2.34578
2.33236
2.31843
2.30398
2.289
2.27349
2.25745
2.24087
2.22373
2.20605
2.18781
2.16901
2.14964
2.1297
2.10919
2.0881
2.06644
2.04419
2.02137
1.99796
1.97397
1.9494
1.92424
1.89851
1.8722
1.84532
1.81787
1.78985
1.76127
1.73214
1.70246
1.67225
1.64151
1.61025
1.57849
1.54624
1.5135
1.4803
1.44666
1.41259
1.3781
1.34323
1.30799
1.2724
1.2365
1.2003
1.16384
1.12713
1.09023
1.05315
1.01593
0.978609
0.94122
0.903802
0.866395
0.82904
0.79178
0.754657
0.717717
0.681006
0.644569
0.608454
0.572709
0.537382
0.502523
0.468179
0.434399
0.401231
0.368724
0.336924
0.305877
0.275628
0.24622
0.217694
0.190092
0.163449
0.137802
0.113183
0.0896229
0.067148
0.0457832
0.0255495
0.00646509
-0.0114553
-0.0281999
-0.0437604
-0.0581314
-0.0713108
-0.0832993
-0.0941004
-0.10372
-0.112167
-0.119452
-0.125588
-0.130587
-0.134465
-0.137237
-0.138921
-0.139531
-0.139084
-0.137595
-0.135078
-0.131548
-0.127018
-0.1215
-0.115006
-0.107548
-0.099142
-0.0898047
-0.0795709
-0.0684495
-0.056586
-0.0437336
-0.0310821
-0.0153304
-0.01047
2.76458
2.76894
2.77192
2.77829
2.78763
2.79234
2.7942
2.79607
2.79844
2.80066
2.80246
2.80395
2.80521
2.80624
2.80702
2.80751
2.80773
2.80767
2.80732
2.80667
2.80572
2.80446
2.80289
2.80099
2.79876
2.79619
2.79327
2.79
2.78637
2.78237
2.77799
2.77322
2.76806
2.7625
2.75653
2.75014
2.74333
2.73607
2.72838
2.72023
2.71163
2.70255
2.693
2.68296
2.67243
2.66139
2.64985
2.63779
2.6252
2.61208
2.59842
2.5842
2.56943
2.5541
2.53819
2.5217
2.50463
2.48697
2.46871
2.44985
2.43037
2.41029
2.38958
2.36825
2.3463
2.32371
2.30049
2.27664
2.25214
2.22701
2.20124
2.17482
2.14777
2.12008
2.09175
2.06279
2.0332
2.00298
1.97214
1.94069
1.90863
1.87597
1.84272
1.80889
1.7745
1.73954
1.70405
1.66803
1.6315
1.59448
1.55699
1.51904
1.48066
1.44188
1.40272
1.3632
1.32335
1.28321
1.2428
1.20217
1.16133
1.12034
1.07923
1.03804
0.99681
0.955584
0.914409
0.87333
0.832396
0.791655
0.751158
0.710956
0.671102
0.631649
0.59265
0.554159
0.516231
0.47892
0.442279
0.406363
0.371223
0.336911
0.303477
0.270969
0.239435
0.20892
0.179464
0.151108
0.123888
0.0978389
0.0729902
0.0493694
0.0270001
0.00590235
-0.0139075
-0.0324166
-0.0496159
-0.0654998
-0.0800662
-0.0933163
-0.105255
-0.115888
-0.125227
-0.133284
-0.140073
-0.145609
-0.149909
-0.152992
-0.154875
-0.155576
-0.155113
-0.153502
-0.150758
-0.146894
-0.141925
-0.135861
-0.128711
-0.120485
-0.111195
-0.100853
-0.0894925
-0.0771119
-0.0638677
-0.0494722
-0.0352563
-0.0174952
-0.0118361
3.00911
3.01399
3.0174
3.02451
3.03485
3.04012
3.04228
3.04446
3.04718
3.04974
3.05184
3.05358
3.05508
3.05634
3.05731
3.05797
3.05832
3.05837
3.0581
3.05751
3.05658
3.05531
3.0537
3.05173
3.04939
3.04668
3.04359
3.04011
3.03623
3.03195
3.02725
3.02212
3.01657
3.01057
3.00412
2.99721
2.98983
2.98197
2.97362
2.96478
2.95543
2.94557
2.93519
2.92427
2.9128
2.90079
2.88822
2.87507
2.86136
2.84705
2.83215
2.81665
2.80053
2.7838
2.76644
2.74845
2.72981
2.71053
2.6906
2.67
2.64874
2.62681
2.6042
2.58091
2.55694
2.53228
2.50692
2.48088
2.45413
2.42669
2.39856
2.36973
2.3402
2.30997
2.27906
2.24745
2.21516
2.18219
2.14855
2.11424
2.07927
2.04365
2.0074
1.97051
1.93301
1.8949
1.85621
1.81694
1.77713
1.73678
1.69591
1.65455
1.61273
1.57046
1.52778
1.48471
1.44129
1.39754
1.3535
1.30921
1.26471
1.22002
1.1752
1.1303
1.08534
1.04039
0.995481
0.950677
0.906025
0.861579
0.817394
0.773527
0.730034
0.686974
0.644406
0.602389
0.560983
0.520249
0.480244
0.441028
0.40266
0.365196
0.328691
0.293199
0.258772
0.225459
0.193307
0.162359
0.132656
0.104235
0.0771288
0.0513677
0.0269771
0.00397881
-0.0176097
-0.0377748
-0.0565072
-0.0738013
-0.0896558
-0.104073
-0.117057
-0.128619
-0.138769
-0.147521
-0.154893
-0.160902
-0.165567
-0.168909
-0.170946
-0.1717
-0.171189
-0.16943
-0.16644
-0.162232
-0.156817
-0.150206
-0.142405
-0.13342
-0.123259
-0.111927
-0.0994514
-0.0858236
-0.0712073
-0.0552673
-0.0394841
-0.019687
-0.0132428
3.25631
3.26161
3.26537
3.27311
3.28434
3.29006
3.29242
3.29482
3.29781
3.30061
3.3029
3.30482
3.30647
3.30785
3.30892
3.30965
3.31005
3.31011
3.30983
3.30919
3.30819
3.30682
3.30507
3.30293
3.30039
3.29745
3.29409
3.2903
3.28608
3.28142
3.27631
3.27073
3.26468
3.25814
3.25112
3.24359
3.23556
3.227
3.21791
3.20828
3.1981
3.18735
3.17604
3.16415
3.15166
3.13858
3.12489
3.11057
3.09563
3.08006
3.06383
3.04696
3.02941
3.0112
2.99231
2.97273
2.95245
2.93148
2.90979
2.88739
2.86427
2.84042
2.81584
2.79052
2.76447
2.73767
2.71012
2.68183
2.65279
2.62299
2.59245
2.56115
2.52911
2.49631
2.46278
2.4285
2.39349
2.35775
2.32128
2.2841
2.24621
2.20763
2.16836
2.12842
2.08781
2.04657
2.00469
1.9622
1.91911
1.87546
1.83125
1.78652
1.74128
1.69557
1.64942
1.60284
1.55589
1.50858
1.46096
1.41307
1.36494
1.31663
1.26816
1.21959
1.17097
1.12234
1.07377
1.0253
0.976994
0.928906
0.881095
0.833625
0.786557
0.739955
0.693883
0.648405
0.603588
0.559497
0.516197
0.473752
0.432226
0.391682
0.35218
0.313779
0.276535
0.240504
0.205734
0.172275
0.140169
0.109458
0.0801773
0.0523586
0.0260294
0.00121291
-0.0220727
-0.0438134
-0.0639999
-0.0826274
-0.099695
-0.115207
-0.129169
-0.141593
-0.152493
-0.161884
-0.169786
-0.176221
-0.181208
-0.184771
-0.186932
-0.187713
-0.187134
-0.185215
-0.181971
-0.177416
-0.171561
-0.164413
-0.155977
-0.146252
-0.135241
-0.122943
-0.109378
-0.0945234
-0.0785523
-0.0610789
-0.0437361
-0.0218835
-0.0146805
3.49863
3.50435
3.50843
3.5168
3.52887
3.53502
3.53758
3.54019
3.54343
3.54646
3.54894
3.55102
3.55281
3.5543
3.55545
3.55625
3.55668
3.55674
3.55644
3.55575
3.55466
3.55317
3.55127
3.54895
3.5462
3.543
3.53936
3.53525
3.53068
3.52562
3.52007
3.51402
3.50746
3.50037
3.49276
3.48459
3.47588
3.4666
3.45674
3.4463
3.43526
3.42362
3.41135
3.39846
3.38493
3.37075
3.35591
3.3404
3.32421
3.30734
3.28976
3.27148
3.25248
3.23276
3.2123
3.19111
3.16916
3.14646
3.12299
3.09876
3.07375
3.04796
3.02138
2.99401
2.96585
2.9369
2.90714
2.87658
2.84522
2.81306
2.78009
2.74633
2.71176
2.6764
2.64024
2.6033
2.56557
2.52707
2.48779
2.44776
2.40698
2.36546
2.32321
2.28024
2.23658
2.19223
2.14722
2.10155
2.05526
2.00836
1.96088
1.91284
1.86426
1.81519
1.76563
1.71564
1.66524
1.61447
1.56336
1.51196
1.46031
1.40845
1.35643
1.3043
1.25212
1.19993
1.14779
1.09576
1.0439
0.992278
0.94095
0.889984
0.839449
0.789412
0.739945
0.691117
0.643
0.595664
0.54918
0.50362
0.459051
0.415542
0.373159
0.331966
0.292025
0.253393
0.216126
0.180275
0.145887
0.113006
0.0816691
0.0519112
0.0237607
-0.00275854
-0.0276277
-0.050833
-0.0723656
-0.0922216
-0.110402
-0.126911
-0.141759
-0.154958
-0.166526
-0.17648
-0.184843
-0.191638
-0.196891
-0.200625
-0.202865
-0.203637
-0.202961
-0.200859
-0.197346
-0.192437
-0.186141
-0.178463
-0.169402
-0.158955
-0.147116
-0.133876
-0.119247
-0.103192
-0.0858896
-0.0668956
-0.0480053
-0.0240808
-0.016151
3.74272
3.74877
3.75312
3.76201
3.77483
3.78133
3.78401
3.78676
3.79016
3.79335
3.79594
3.7981
3.79994
3.80147
3.80263
3.80341
3.80379
3.80378
3.80336
3.80253
3.80128
3.79959
3.79745
3.79486
3.79181
3.78828
3.78426
3.77975
3.77473
3.76919
3.76312
3.75651
3.74934
3.74161
3.73331
3.72442
3.71494
3.70484
3.69412
3.68278
3.67078
3.65814
3.64483
3.63084
3.61617
3.60079
3.58471
3.56791
3.55037
3.5321
3.51308
3.4933
3.47275
3.45142
3.42931
3.4064
3.38269
3.35817
3.33284
3.30668
3.27969
3.25187
3.22322
3.19372
3.16338
3.13218
3.10014
3.06725
3.03351
2.99891
2.96346
2.92717
2.89003
2.85204
2.81322
2.77357
2.73309
2.6918
2.64969
2.60679
2.5631
2.51863
2.47339
2.42741
2.38069
2.33325
2.28512
2.2363
2.18683
2.13672
2.086
2.03469
1.98282
1.93043
1.87753
1.82417
1.77039
1.71621
1.66168
1.60684
1.55173
1.4964
1.44091
1.3853
1.32962
1.27394
1.21831
1.1628
1.10747
1.05238
0.997616
0.943234
0.889311
0.835921
0.78314
0.731044
0.67971
0.629215
0.579635
0.531047
0.483525
0.437144
0.391974
0.348085
0.305543
0.26441
0.224746
0.186606
0.150039
0.115092
0.0818045
0.0502124
0.0203451
-0.00777287
-0.0341228
-0.0586915
-0.0814711
-0.102459
-0.121658
-0.139076
-0.154723
-0.168617
-0.180775
-0.191221
-0.199979
-0.207076
-0.212539
-0.216397
-0.218676
-0.219404
-0.218605
-0.2163
-0.212506
-0.207237
-0.200501
-0.1923
-0.18263
-0.171481
-0.15884
-0.144688
-0.129027
-0.111802
-0.0931951
-0.0727022
-0.052283
-0.0262746
-0.0176557
3.98375
3.9901
3.99467
4.00405
4.01754
4.02434
4.0271
4.02995
4.03349
4.03679
4.03945
4.04165
4.04352
4.04504
4.04617
4.04688
4.04717
4.04704
4.04648
4.04547
4.044
4.04207
4.03966
4.03676
4.03336
4.02945
4.02502
4.02005
4.01454
4.00847
4.00183
3.99461
3.98679
3.97837
3.96933
3.95966
3.94935
3.93839
3.92676
3.91445
3.90145
3.88775
3.87334
3.8582
3.84232
3.8257
3.80831
3.79016
3.77122
3.7515
3.73097
3.70963
3.68747
3.66447
3.64065
3.61597
3.59044
3.56405
3.53679
3.50865
3.47964
3.44974
3.41895
3.38728
3.3547
3.32123
3.28687
3.2516
3.21544
3.17838
3.14042
3.10158
3.06184
3.02123
2.97973
2.93737
2.89414
2.85006
2.80513
2.75937
2.71279
2.6654
2.61721
2.56824
2.51852
2.46804
2.41684
2.36494
2.31235
2.2591
2.20522
2.15073
2.09565
2.04003
1.98389
1.92726
1.87019
1.81271
1.75486
1.69668
1.63823
1.57955
1.52069
1.4617
1.40265
1.34359
1.28459
1.2257
1.16701
1.10858
1.05048
0.992795
0.935596
0.878964
0.822981
0.767728
0.713289
0.659746
0.607183
0.555681
0.505322
0.456184
0.408344
0.361877
0.316853
0.27334
0.2314
0.191091
0.152467
0.115576
0.0804588
0.047153
0.0156886
-0.0139103
-0.0416252
-0.0674439
-0.0913603
-0.113374
-0.133489
-0.151716
-0.16807
-0.182569
-0.195236
-0.206096
-0.215178
-0.222512
-0.228129
-0.23206
-0.234335
-0.234983
-0.234031
-0.231502
-0.227413
-0.221777
-0.214602
-0.205887
-0.195623
-0.183794
-0.170379
-0.155346
-0.138687
-0.120328
-0.100451
-0.0784836
-0.0565595
-0.028458
-0.0191944
4.22585
4.23242
4.23715
4.24693
4.261
4.26801
4.27079
4.27366
4.27727
4.28061
4.28327
4.28543
4.28724
4.28869
4.28971
4.29028
4.2904
4.29007
4.28928
4.28801
4.28626
4.284
4.28123
4.27793
4.27411
4.26973
4.26479
4.25928
4.25319
4.2465
4.2392
4.23127
4.22271
4.2135
4.20363
4.19309
4.18186
4.16993
4.15729
4.14392
4.12981
4.11496
4.09934
4.08294
4.06576
4.04778
4.02899
4.00938
3.98893
3.96764
3.9455
3.92249
3.89861
3.87385
3.8482
3.82165
3.7942
3.76583
3.73654
3.70633
3.67519
3.64312
3.61011
3.57616
3.54126
3.50543
3.46866
3.43094
3.39228
3.35269
3.31216
3.2707
3.22831
3.18501
3.1408
3.09568
3.04967
3.00277
2.955
2.90637
2.85689
2.80658
2.75545
2.70352
2.6508
2.59731
2.54309
2.48813
2.43247
2.37614
2.31915
2.26154
2.20333
2.14455
2.08524
2.02543
1.96516
1.90446
1.84338
1.78197
1.72026
1.65832
1.59619
1.53393
1.47159
1.40925
1.34697
1.28481
1.22286
1.16118
1.09985
1.03895
0.978568
0.91879
0.859701
0.801389
0.743943
0.687452
0.632006
0.577692
0.524598
0.472808
0.422406
0.373469
0.326075
0.280293
0.23619
0.193828
0.153263
0.114544
0.077714
0.0428109
0.00986479
-0.0211002
-0.0500674
-0.077026
-0.101972
-0.124906
-0.145837
-0.164777
-0.181745
-0.196763
-0.209857
-0.221057
-0.230394
-0.237902
-0.243615
-0.247569
-0.249797
-0.25033
-0.249197
-0.246422
-0.242025
-0.236017
-0.228405
-0.219185
-0.208344
-0.195858
-0.181697
-0.165819
-0.148201
-0.128746
-0.107638
-0.0842279
-0.0608288
-0.0306286
-0.0207696
4.46613
4.47287
4.47771
4.48781
4.50238
4.50954
4.51228
4.51513
4.51875
4.52207
4.52467
4.52674
4.52845
4.52975
4.53061
4.53098
4.53088
4.5303
4.52922
4.52763
4.52552
4.52287
4.51968
4.51593
4.51161
4.5067
4.5012
4.49508
4.48834
4.48096
4.47293
4.46423
4.45485
4.44479
4.43401
4.42252
4.41029
4.39732
4.38359
4.36908
4.35379
4.33769
4.32079
4.30305
4.28448
4.26506
4.24478
4.22363
4.20159
4.17865
4.15481
4.13005
4.10437
4.07775
4.0502
4.02169
3.99223
3.9618
3.9304
3.89804
3.86469
3.83037
3.79506
3.75877
3.72149
3.68323
3.64399
3.60376
3.56256
3.52038
3.47723
3.43312
3.38806
3.34204
3.29509
3.24721
3.19841
3.1487
3.09809
3.04661
2.99425
2.94105
2.88701
2.83216
2.7765
2.72007
2.66288
2.60495
2.5463
2.48697
2.42697
2.36634
2.30509
2.24327
2.1809
2.11802
2.05467
1.99088
1.9267
1.86217
1.79734
1.73226
1.66698
1.60157
1.53608
1.47059
1.40515
1.33984
1.27474
1.20992
1.14547
1.08148
1.01804
0.955227
0.893145
0.831885
0.771545
0.712218
0.654002
0.596991
0.541277
0.486952
0.434104
0.382817
0.333171
0.285241
0.239098
0.194805
0.152421
0.111997
0.0735772
0.0371987
0.00289165
-0.0293213
-0.0594243
-0.0874087
-0.113273
-0.137022
-0.158666
-0.178221
-0.195711
-0.21116
-0.224599
-0.236062
-0.245584
-0.253204
-0.258958
-0.262886
-0.265025
-0.265407
-0.264066
-0.261025
-0.256306
-0.249921
-0.241874
-0.232159
-0.220758
-0.207641
-0.192767
-0.17608
-0.157544
-0.137037
-0.114741
-0.0899217
-0.0650826
-0.0327804
-0.0223819
4.70707
4.71391
4.71879
4.72914
4.74409
4.75132
4.75396
4.75672
4.76028
4.76351
4.76597
4.76788
4.76939
4.77049
4.7711
4.7712
4.77079
4.76987
4.76842
4.76643
4.76389
4.76077
4.75707
4.75277
4.74787
4.74234
4.73617
4.72935
4.72187
4.71371
4.70485
4.69528
4.68499
4.67396
4.66218
4.64964
4.63631
4.62219
4.60726
4.5915
4.57491
4.55747
4.53916
4.51998
4.4999
4.47893
4.45704
4.43422
4.41047
4.38577
4.36011
4.33348
4.30588
4.27729
4.2477
4.21712
4.18553
4.15293
4.11931
4.08468
4.04902
4.01233
3.97462
3.93588
3.89612
3.85534
3.81354
3.77072
3.72689
3.68205
3.63622
3.58939
3.54159
3.49281
3.44308
3.39239
3.34077
3.28823
3.23478
3.18043
3.12521
3.06913
3.01221
2.95446
2.89591
2.83658
2.77648
2.71564
2.65408
2.59183
2.52891
2.46534
2.40117
2.3364
2.27109
2.20525
2.13893
2.07217
2.00501
1.93748
1.86965
1.80156
1.73326
1.66482
1.5963
1.52777
1.45929
1.39094
1.32281
1.25497
1.18752
1.12055
1.05414
0.988406
0.923437
0.859338
0.796209
0.734155
0.673277
0.613677
0.555454
0.498706
0.443526
0.390003
0.338222
0.288263
0.240198
0.194095
0.150013
0.108006
0.0681162
0.0303821
-0.0051671
-0.0385103
-0.0696342
-0.0985326
-0.125206
-0.149664
-0.17192
-0.191995
-0.209915
-0.22571
-0.239414
-0.251067
-0.260707
-0.268376
-0.274117
-0.277972
-0.27998
-0.280179
-0.278602
-0.275277
-0.270225
-0.263458
-0.25498
-0.24478
-0.232838
-0.219114
-0.203559
-0.186102
-0.166692
-0.145179
-0.121742
-0.0955549
-0.0693162
-0.0349119
-0.0240351
4.94707
4.95394
4.95881
4.96932
4.98457
4.99179
4.99426
4.99688
5.00031
5.00338
5.00565
5.00732
5.00858
5.0094
5.0097
5.00945
5.00867
5.00734
5.00546
5.00299
4.99993
4.99627
4.99198
4.98707
4.9815
4.97527
4.96836
4.96076
4.95245
4.94342
4.93365
4.92313
4.91183
4.89975
4.88687
4.87318
4.85866
4.84329
4.82706
4.80996
4.79197
4.77308
4.75327
4.73253
4.71085
4.68821
4.6646
4.64002
4.61444
4.58787
4.56028
4.53167
4.50204
4.47136
4.43964
4.40688
4.37305
4.33817
4.30223
4.26522
4.22714
4.188
4.14779
4.10652
4.06419
4.0208
3.97636
3.93087
3.88434
3.83679
3.78821
3.73862
3.68804
3.63646
3.58392
3.53041
3.47597
3.42059
3.3643
3.30711
3.24905
3.19013
3.13037
3.06979
3.00841
2.94625
2.88333
2.81967
2.7553
2.69023
2.6245
2.55813
2.49115
2.42357
2.35545
2.28679
2.21766
2.14806
2.07806
2.00769
1.937
1.86604
1.79487
1.72354
1.65213
1.58069
1.50931
1.43805
1.36702
1.29629
1.22595
1.15611
1.08687
1.01832
0.950584
0.883757
0.817954
0.753284
0.689858
0.627783
0.567166
0.50811
0.450714
0.395074
0.341278
0.289409
0.239545
0.191754
0.146097
0.102627
0.0613901
0.0224217
-0.0142506
-0.0486074
-0.0806373
-0.110338
-0.137714
-0.162777
-0.185545
-0.206045
-0.224306
-0.240362
-0.254255
-0.266025
-0.275717
-0.283378
-0.289053
-0.292789
-0.294628
-0.294611
-0.292775
-0.289147
-0.283752
-0.2766
-0.267694
-0.257021
-0.244556
-0.230252
-0.21405
-0.195863
-0.175625
-0.153155
-0.128628
-0.101115
-0.0735225
-0.0370175
-0.0257302
5.18761
5.19445
5.19923
5.20982
5.22525
5.23239
5.23463
5.23703
5.24026
5.2431
5.24509
5.24646
5.24739
5.24784
5.24775
5.24708
5.24584
5.24402
5.24161
5.23858
5.23492
5.23062
5.22567
5.22003
5.21371
5.20669
5.19894
5.19046
5.18123
5.17122
5.16043
5.14884
5.13644
5.1232
5.10911
5.09416
5.07832
5.06159
5.04395
5.02538
5.00587
4.9854
4.96396
4.94154
4.91812
4.89369
4.86824
4.84175
4.81422
4.78564
4.75599
4.72526
4.69346
4.66056
4.62658
4.59149
4.5553
4.51801
4.47961
4.4401
4.39948
4.35776
4.31494
4.27101
4.226
4.1799
4.13271
4.08446
4.03515
3.98479
3.9334
3.88098
3.82755
3.77313
3.71774
3.66138
3.60408
3.54586
3.48673
3.42671
3.36583
3.3041
3.24154
3.17818
3.11403
3.04911
2.98345
2.91707
2.84999
2.78222
2.7138
2.64475
2.57509
2.50484
2.43405
2.36272
2.29091
2.21864
2.14595
2.07289
1.99949
1.92582
1.85192
1.77785
1.70368
1.62948
1.55532
1.4813
1.40749
1.33398
1.26089
1.1883
1.11633
1.04509
0.974693
0.905251
0.836883
0.769709
0.703845
0.639407
0.576507
0.515257
0.455762
0.39812
0.342427
0.288768
0.237224
0.187865
0.140753
0.0959429
0.0534781
0.0133936
-0.0242842
-0.0595389
-0.0923628
-0.122757
-0.150729
-0.176295
-0.19948
-0.220313
-0.238828
-0.255066
-0.269071
-0.28089
-0.290572
-0.298168
-0.303728
-0.307302
-0.308936
-0.308674
-0.306555
-0.30261
-0.296861
-0.289322
-0.279993
-0.26886
-0.255891
-0.241034
-0.224218
-0.205343
-0.184323
-0.160947
-0.135383
-0.106594
-0.0776979
-0.0390962
-0.0274718
5.42791
5.43464
5.43927
5.44985
5.46537
5.47234
5.47429
5.47641
5.47937
5.4819
5.48355
5.48454
5.48507
5.48509
5.48453
5.48336
5.48158
5.4792
5.47618