/*--------------------------------*- C++ -*----------------------------------*\
  =========                 |
  \\      /  F ield         | OpenFOAM: The Open Source CFD Toolbox
   \\    /   O peration     | Website:  https://openfoam.org
    \\  /    A nd           | Version:  13
     \\/     M anipulation  |
\*---------------------------------------------------------------------------*/
FoamFile
{
    format      ascii;
    class       surfaceScalarField;
    location    "0.05";
    object      phi;
}
// * * * * * * * * * * * * * * * * * * * * * * * * * * * * * * * * * * * * * //

dimensions      [0 3 -1 0 0 0 0];

internalField   nonuniform List<scalar> 
137229
(
14.3654
0.000770813
-14.3681
14.3625
0.000791728
14.3597
0.000810635
14.3567
0.00083987
14.3537
0.000863438
14.3507
0.000885892
14.3476
0.000908431
14.3444
0.00093122
14.3412
0.000954382
14.3379
0.000977909
14.3346
0.00100184
14.3312
0.00102609
14.3277
0.00105078
14.3241
0.00107582
14.3205
0.00110122
14.3168
0.00112706
14.3131
0.00115322
14.3092
0.00117977
14.3053
0.00120672
14.3013
0.00123402
14.2973
0.00126173
14.2931
0.0012898
14.2889
0.00131824
14.2846
0.00134706
14.2802
0.00137627
14.2757
0.00140584
14.2712
0.00143577
14.2665
0.00146609
14.2618
0.00149677
14.2569
0.00152781
14.252
0.00155926
14.2469
0.001591
14.2418
0.00162315
14.2366
0.00165569
14.2312
0.00168851
14.2258
0.00172178
14.2202
0.00175535
14.2145
0.00178927
14.2088
0.0018236
14.2029
0.00185823
14.1969
0.00189327
14.1907
0.00192861
14.1845
0.00196431
14.1781
0.00200042
14.1716
0.0020368
14.1649
0.0020736
14.1581
0.00211072
14.1512
0.00214821
14.1442
0.00218603
14.137
0.00222427
14.1297
0.00226284
14.1222
0.00230179
14.1145
0.00234109
14.1067
0.0023808
14.0988
0.00242088
14.0907
0.00246135
14.0824
0.00250224
14.074
0.00254352
14.0653
0.00258526
14.0566
0.00262743
14.0476
0.00267002
14.0384
0.00271314
14.0291
0.00275667
14.0196
0.00280078
14.0098
0.00284539
13.9999
0.00289054
13.9898
0.00293631
13.9795
0.00298269
13.9689
0.00302971
13.9582
0.00307743
13.9472
0.00312587
13.936
0.00317514
13.9246
0.00322523
13.9129
0.00327619
13.901
0.00332815
13.8888
0.00338115
13.8764
0.00343524
13.8638
0.00349061
13.8509
0.00354728
13.8377
0.00360538
13.8242
0.00366507
13.8105
0.00372647
13.7965
0.00378972
13.7822
0.00385504
13.7676
0.00392257
13.7527
0.00399259
13.7375
0.00406525
13.7219
0.00414088
13.7061
0.00421965
13.6899
0.004302
13.6734
0.00438815
13.6566
0.00447847
13.6394
0.0045734
13.6218
0.00467323
13.6039
0.00477853
13.5856
0.00488968
13.5669
0.00500722
13.5478
0.00513161
13.5283
0.0052635
13.5085
0.00540341
13.4882
0.00555196
13.4675
0.00570983
13.4463
0.00587768
13.4247
0.00605617
13.4026
0.00624611
13.3801
0.00644814
13.3571
0.00666315
13.3337
0.00689186
13.3097
0.00713508
13.2852
0.00739369
13.2602
0.00766847
13.2347
0.00796029
13.2086
0.00827005
13.182
0.00859856
13.1548
0.00894674
13.127
0.00931535
13.0987
0.0097054
13.0697
0.0101176
13.0401
0.0105529
13.0099
0.0110121
12.979
0.011496
12.9475
0.0120054
12.9153
0.0125411
12.8823
0.0131038
12.8487
0.0136942
12.8144
0.0143131
12.7793
0.0149611
12.7434
0.0156388
12.7068
0.0163469
12.6693
0.0170858
12.6311
0.0178562
12.592
0.0186585
12.552
0.0194932
12.5112
0.0203606
12.4695
0.0212612
12.4268
0.0221953
12.3832
0.0231632
12.3387
0.0241651
12.2932
0.0252013
12.2467
0.026272
12.1991
0.0273774
12.1505
0.0285174
12.1008
0.0296923
12.05
0.0309021
11.998
0.0321468
11.945
0.0334263
11.8907
0.0347407
11.8352
0.0360899
11.7785
0.0374737
11.7205
0.038892
11.6612
0.0403446
11.6006
0.0418314
11.5386
0.0433521
11.4752
0.0449064
11.4104
0.046494
11.3442
0.0481146
11.2764
0.0497678
11.2072
0.0514532
11.1364
0.0531704
11.0639
0.054919
10.9899
0.0566984
10.9142
0.0585081
10.8367
0.0603484
10.7576
0.0622155
10.6766
0.064124
10.5939
0.0660048
0.0681669
13.6794
0.00329408
-13.682
13.6769
0.00336423
13.6742
0.00343355
13.6716
0.00351375
13.6688
0.00358957
13.6661
0.00366547
13.6632
0.00374254
13.6603
0.00382103
13.6574
0.00390104
13.6544
0.00398254
13.6513
0.00406566
13.6482
0.00415038
13.645
0.00423675
13.6418
0.00432473
13.6384
0.00441441
13.6351
0.00450583
13.6316
0.00459898
13.6281
0.0046939
13.6245
0.00479064
13.6209
0.00488922
13.6171
0.00498965
13.6133
0.00509198
13.6095
0.00519626
13.6055
0.00530246
13.6015
0.00541075
13.5974
0.00552097
13.5932
0.00563336
13.5889
0.0057478
13.5845
0.00586438
13.5801
0.00598315
13.5755
0.00610416
13.5709
0.00622741
13.5661
0.00635296
13.5613
0.00648087
13.5564
0.00661114
13.5514
0.00674382
13.5463
0.00687903
13.541
0.0070167
13.5357
0.00715694
13.5302
0.00729982
13.5247
0.0074453
13.519
0.00759352
13.5133
0.00774451
13.5074
0.00789831
13.5013
0.00805496
13.4952
0.00821454
13.4889
0.0083771
13.4825
0.00854267
13.476
0.00871138
13.4694
0.00888323
13.4626
0.00905831
13.4556
0.00923667
13.4485
0.00941842
13.4413
0.00960357
13.4339
0.00979227
13.4264
0.00998454
13.4187
0.0101805
13.4109
0.0103802
13.4029
0.0105836
13.3947
0.010791
13.3864
0.0110025
13.3779
0.011218
13.3692
0.0114378
13.3604
0.0116618
13.3513
0.0118903
13.3421
0.0121233
13.3327
0.0123609
13.323
0.0126033
13.3132
0.0128506
13.3032
0.0131028
13.293
0.0133603
13.2825
0.0136231
13.2719
0.0138913
13.261
0.0141651
13.2498
0.0144448
13.2385
0.0147304
13.2269
0.0150222
13.2151
0.0153204
13.203
0.0156253
13.1907
0.0159369
13.1781
0.0162557
13.1652
0.0165818
13.1521
0.0169155
13.1387
0.0172573
13.125
0.0176073
13.111
0.0179659
13.0968
0.0183336
13.0822
0.0187107
13.0673
0.0190976
13.0521
0.0194948
13.0366
0.0199028
13.0208
0.0203221
13.0046
0.0207532
12.9881
0.0211968
12.9712
0.0216534
12.954
0.0221237
12.9364
0.0226084
12.9184
0.0231081
12.9
0.0236238
12.8813
0.0241559
12.8621
0.0247057
12.8426
0.0252736
12.8226
0.0258609
12.8022
0.0264682
12.7813
0.0270966
12.76
0.0277471
12.7383
0.0284206
12.716
0.0291183
12.6933
0.0298411
12.6701
0.0305902
12.6464
0.0313668
12.6222
0.0321717
12.5975
0.0330064
12.5722
0.0338718
12.5464
0.0347692
12.52
0.0356997
12.493
0.0366644
12.4655
0.0376646
12.4373
0.0387015
12.4086
0.0397761
12.3792
0.0408897
12.3491
0.0420434
12.3184
0.0432382
12.2871
0.0444754
12.255
0.0457561
12.2222
0.0470812
12.1888
0.0484519
12.1545
0.0498692
12.1195
0.0513342
12.0838
0.0528476
12.0472
0.0544107
12.0099
0.0560243
11.9717
0.0576891
11.9326
0.0594063
11.8927
0.0611766
11.8519
0.0630008
11.8102
0.0648796
11.7675
0.066814
11.7239
0.0688045
11.6793
0.070852
11.6338
0.072957
11.5872
0.0751203
11.5395
0.0773425
11.4908
0.0796241
11.441
0.0819659
11.39
0.0843683
11.3379
0.0868319
11.2847
0.0893572
11.2302
0.0919447
11.1745
0.094595
11.1175
0.0973084
11.0593
0.100085
10.9997
0.102926
10.9388
0.105832
10.8765
0.108802
10.8127
0.111838
10.7476
0.114938
10.6809
0.118105
10.6128
0.121338
10.543
0.124636
10.4717
0.128002
10.3988
0.131434
10.3242
0.134933
10.2479
0.138497
10.1699
0.14214
10.0901
0.145797
0.149776
13.0235
0.00558354
-13.0258
13.0212
0.0056992
13.0188
0.00581507
13.0164
0.00594235
13.0139
0.00606653
13.0114
0.00619186
13.0088
0.00631945
13.0062
0.00644958
13.0035
0.00658223
13.0008
0.00671756
12.998
0.00685562
12.9951
0.00699645
12.9922
0.00714006
12.9893
0.00728661
12.9862
0.00743604
12.9832
0.00758846
12.98
0.00774396
12.9768
0.00790252
12.9735
0.00806425
12.9702
0.00822923
12.9668
0.00839744
12.9633
0.00856907
12.9598
0.00874403
12.9561
0.00892253
12.9524
0.00910455
12.9487
0.00929021
12.9448
0.00947949
12.9409
0.0096726
12.9369
0.00986949
12.9328
0.0100703
12.9286
0.0102751
12.9244
0.010484
12.92
0.010697
12.9156
0.0109142
12.9111
0.0111357
12.9065
0.0113616
12.9018
0.011592
12.8969
0.0118269
12.892
0.0120666
12.887
0.012311
12.8819
0.0125602
12.8767
0.0128144
12.8714
0.0130736
12.8659
0.013338
12.8604
0.0136076
12.8547
0.0138826
12.8489
0.0141632
12.843
0.0144493
12.837
0.0147411
12.8308
0.0150388
12.8245
0.0153424
12.8181
0.0156521
12.8116
0.0159681
12.8049
0.0162904
12.7981
0.0166193
12.7911
0.0169548
12.784
0.017297
12.7767
0.0176462
12.7693
0.0180026
12.7617
0.0183661
12.754
0.0187371
12.7461
0.0191158
12.738
0.0195022
12.7298
0.0198966
12.7214
0.0202991
12.7128
0.02071
12.704
0.0211294
12.6951
0.0215576
12.6859
0.0219948
12.6766
0.0224412
12.667
0.022897
12.6573
0.0233626
12.6474
0.0238381
12.6372
0.0243238
12.6268
0.0248199
12.6162
0.0253269
12.6054
0.025845
12.5943
0.0263745
12.5831
0.0269157
12.5715
0.027469
12.5597
0.0280349
12.5477
0.0286136
12.5354
0.0292056
12.5229
0.0298113
12.51
0.0304313
12.4969
0.0310659
12.4836
0.0317158
12.4699
0.0323813
12.4559
0.0330633
12.4417
0.0337622
12.4271
0.0344788
12.4122
0.0352136
12.397
0.0359673
12.3814
0.0367409
12.3656
0.0375349
12.3493
0.0383504
12.3327
0.039188
12.3158
0.0400488
12.2985
0.0409337
12.2808
0.0418436
12.2627
0.0427796
12.2443
0.0437428
12.2254
0.0447342
12.2061
0.045755
12.1864
0.0468063
12.1663
0.0478894
12.1457
0.0490056
12.1246
0.050156
12.1031
0.051342
12.0812
0.052565
12.0587
0.0538262
12.0357
0.0551271
12.0123
0.0564692
11.9883
0.0578536
11.9638
0.0592821
11.9387
0.0607559
11.9131
0.0622766
11.8869
0.0638456
11.8602
0.0654644
11.8328
0.0671345
11.8048
0.0688573
11.7763
0.0706345
11.747
0.0724673
11.7171
0.0743573
11.6866
0.076306
11.6554
0.0783147
11.6234
0.080385
11.5908
0.0825182
11.5574
0.0847158
11.5233
0.0869792
11.4884
0.0893097
11.4527
0.0917086
11.4162
0.0941774
11.3789
0.0967173
11.3407
0.0993297
11.3017
0.102016
11.2618
0.104777
11.221
0.107614
11.1793
0.110529
11.1366
0.113523
11.093
0.116596
11.0484
0.119751
11.0027
0.122987
10.956
0.126308
10.9083
0.129713
10.8594
0.133203
10.8095
0.136781
10.7584
0.140446
10.7061
0.144201
10.6527
0.148046
10.598
0.151982
10.5421
0.15601
10.4849
0.160132
10.4264
0.164348
10.3665
0.16866
10.3053
0.173068
10.2427
0.177574
10.1786
0.182179
10.113
0.186883
10.046
0.191687
9.97739
0.196592
9.90723
0.201599
9.83545
0.20671
9.76202
0.211922
9.68691
0.217251
9.61008
0.222631
0.228374
12.4002
0.00767007
-12.4023
12.3981
0.00782791
12.3959
0.00798691
12.3937
0.00815788
12.3915
0.0083269
12.3892
0.00849815
12.3868
0.00867266
12.3844
0.00885068
12.382
0.0090323
12.3795
0.00921767
12.3769
0.00940677
12.3743
0.0095998
12.3716
0.00979674
12.3689
0.00999772
12.3662
0.0102028
12.3633
0.0104121
12.3605
0.0106256
12.3575
0.0108435
12.3545
0.0110658
12.3515
0.0112927
12.3483
0.0115242
12.3451
0.0117604
12.3419
0.0120015
12.3386
0.0122474
12.3352
0.0124984
12.3317
0.0127545
12.3282
0.0130157
12.3245
0.0132824
12.3209
0.0135544
12.3171
0.013832
12.3133
0.0141153
12.3093
0.0144043
12.3053
0.0146992
12.3013
0.0150002
12.2971
0.0153072
12.2928
0.0156206
12.2885
0.0159403
12.284
0.0162666
12.2795
0.0165995
12.2749
0.0169392
12.2701
0.0172859
12.2653
0.0176397
12.2604
0.0180007
12.2554
0.0183691
12.2502
0.0187451
12.245
0.0191288
12.2396
0.0195203
12.2342
0.0199199
12.2286
0.0203278
12.2229
0.020744
12.217
0.0211689
12.2111
0.0216025
12.205
0.0220451
12.1988
0.0224969
12.1925
0.022958
12.186
0.0234287
12.1794
0.0239092
12.1726
0.0243998
12.1657
0.0249006
12.1587
0.0254118
12.1515
0.0259338
12.1441
0.0264668
12.1366
0.0270109
12.129
0.0275666
12.1211
0.0281341
12.1131
0.0287135
12.1049
0.0293053
12.0966
0.0299097
12.0881
0.0305271
12.0793
0.0311576
12.0704
0.0318018
12.0613
0.0324599
12.052
0.0331322
12.0425
0.0338193
12.0328
0.0345213
12.0229
0.0352388
12.0128
0.035972
12.0025
0.0367216
11.9919
0.0374879
11.9811
0.0382714
11.97
0.0390726
11.9588
0.039892
11.9472
0.0407303
11.9355
0.0415878
11.9234
0.0424653
11.9111
0.0433633
11.8986
0.0442826
11.8857
0.0452238
11.8726
0.0461877
11.8592
0.047175
11.8455
0.0481865
11.8315
0.0492231
11.8172
0.0502856
11.8025
0.051375
11.7876
0.0524922
11.7723
0.0536383
11.7566
0.0548142
11.7407
0.0560212
11.7243
0.0572602
11.7077
0.0585325
11.6906
0.0598393
11.6732
0.0611819
11.6553
0.0625616
11.6371
0.0639798
11.6185
0.0654378
11.5994
0.066937
11.58
0.0684789
11.56
0.0700652
11.5397
0.0716972
11.5189
0.0733766
11.4976
0.0751049
11.4758
0.0768838
11.4536
0.0787151
11.4309
0.0806003
11.4076
0.0825412
11.3838
0.0845394
11.3595
0.0865969
11.3346
0.0887153
11.3092
0.0908963
11.2832
0.0931418
11.2566
0.0954537
11.2294
0.0978335
11.2016
0.100283
11.1731
0.102805
11.144
0.1054
11.1143
0.10807
11.0838
0.110817
11.0527
0.113643
11.0209
0.11655
10.9883
0.11954
10.955
0.122613
10.921
0.125773
10.8861
0.12902
10.8505
0.132357
10.814
0.135785
10.7767
0.139306
10.7386
0.142922
10.6996
0.146634
10.6596
0.150444
10.6188
0.154354
10.577
0.158366
10.5343
0.162481
10.4906
0.166701
10.4459
0.171027
10.4001
0.175462
10.3533
0.180007
10.3054
0.184664
10.2565
0.189434
10.2063
0.19432
10.1551
0.199322
10.1026
0.204443
10.0489
0.209685
9.99401
0.215048
9.93782
0.220535
9.88034
0.226148
9.82152
0.231887
9.76134
0.237756
9.69976
0.243754
9.63676
0.249885
9.5723
0.256149
9.50634
0.262548
9.43886
0.269083
9.36981
0.275758
9.29916
0.282569
9.22688
0.289533
9.15293
0.296584
0.30404
11.806
0.00957142
-11.8079
11.8041
0.00976821
11.8021
0.00996721
11.8001
0.0101785
11.798
0.0103891
11.7959
0.0106028
11.7938
0.0108208
11.7916
0.0110433
11.7894
0.0112702
11.7871
0.011502
11.7847
0.0117385
11.7824
0.01198
11.7799
0.0122264
11.7774
0.012478
11.7749
0.0127348
11.7723
0.0129969
11.7697
0.0132645
11.767
0.0135375
11.7642
0.0138163
11.7614
0.0141008
11.7586
0.0143913
11.7556
0.0146877
11.7527
0.0149903
11.7496
0.0152992
11.7465
0.0156145
11.7433
0.0159363
11.7401
0.0162648
11.7367
0.0166001
11.7334
0.0169424
11.7299
0.0172918
11.7264
0.0176484
11.7227
0.0180124
11.7191
0.018384
11.7153
0.0187633
11.7115
0.0191505
11.7075
0.0195458
11.7035
0.0199493
11.6994
0.0203611
11.6952
0.0207816
11.691
0.0212107
11.6866
0.0216489
11.6822
0.0220962
11.6776
0.0225528
11.673
0.023019
11.6682
0.0234949
11.6634
0.0239807
11.6584
0.0244767
11.6533
0.0249832
11.6482
0.0255003
11.6429
0.0260282
11.6375
0.0265672
11.632
0.0271176
11.6263
0.0276795
11.6206
0.0282534
11.6147
0.0288393
11.6087
0.0294377
11.6025
0.0300487
11.5963
0.0306728
11.5899
0.03131
11.5833
0.0319608
11.5766
0.0326256
11.5698
0.0333045
11.5628
0.033998
11.5557
0.0347063
11.5484
0.0354299
11.5409
0.0361691
11.5333
0.0369242
11.5255
0.0376956
11.5175
0.0384838
11.5094
0.0392891
11.5011
0.0401121
11.4926
0.040953
11.4839
0.0418123
11.4751
0.0426906
11.466
0.0435883
11.4567
0.0445059
11.4472
0.0454439
11.4376
0.046403
11.4277
0.0473835
11.4176
0.0483863
11.4072
0.0494117
11.3967
0.0504606
11.3858
0.0515336
11.3748
0.0526313
11.3635
0.0537546
11.352
0.0549041
11.3402
0.0560807
11.3281
0.0572853
11.3158
0.0585186
11.3032
0.0597817
11.2903
0.0610754
11.2771
0.0624008
11.2636
0.0637589
11.2499
0.0651508
11.2358
0.0665777
11.2214
0.0680406
11.2066
0.069541
11.1916
0.0710799
11.1762
0.0726587
11.1604
0.0742789
11.1443
0.0759418
11.1279
0.077649
11.111
0.0794018
11.0938
0.0812019
11.0762
0.0830508
11.0582
0.0849503
11.0398
0.086902
11.0209
0.0889077
11.0016
0.0909691
10.9819
0.093088
10.9618
0.0952663
10.9412
0.0975059
10.9201
0.0998087
10.8985
0.102177
10.8764
0.104612
10.8538
0.107116
10.8307
0.109691
10.8071
0.11234
10.7829
0.115063
10.7582
0.117865
10.7329
0.120745
10.7071
0.123707
10.6806
0.126753
10.6535
0.129884
10.6258
0.133104
10.5975
0.136413
10.5685
0.139815
10.5388
0.143311
10.5084
0.146904
10.4774
0.150595
10.4456
0.154387
10.4131
0.158282
10.3798
0.162283
10.3458
0.16639
10.311
0.170607
10.2754
0.174936
10.2389
0.179379
10.2016
0.183937
10.1634
0.188614
10.1244
0.193411
10.0844
0.198331
10.0435
0.203375
10.0017
0.208547
9.95884
0.213847
9.91503
0.219279
9.87019
0.224845
9.82431
0.230547
9.77735
0.236387
9.72931
0.242367
9.68014
0.24849
9.62982
0.254759
9.57833
0.261175
9.52564
0.267741
9.47172
0.274458
9.41653
0.281331
9.36006
0.28836
9.30227
0.295548
9.24313
0.302897
9.1826
0.31041
9.12066
0.318088
9.05728
0.325935
8.99241
0.333951
8.92602
0.34214
8.85809
0.350501
8.78857
0.359051
8.71744
0.367722
0.376837
11.2405
0.0113047
-11.2422
11.2387
0.0115377
11.2369
0.0117737
11.2351
0.0120224
11.2332
0.0122715
11.2313
0.0125248
11.2293
0.0127832
11.2273
0.0130469
11.2253
0.0133161
11.2232
0.013591
11.2211
0.0138716
11.2189
0.0141582
11.2166
0.0144507
11.2144
0.0147494
11.2121
0.0150544
11.2097
0.0153657
11.2073
0.0156836
11.2048
0.0160082
11.2023
0.0163396
11.1997
0.016678
11.1971
0.0170234
11.1944
0.0173761
11.1916
0.0177363
11.1888
0.0181039
11.186
0.0184793
11.183
0.0188627
11.18
0.019254
11.177
0.0196536
11.1739
0.0200616
11.1707
0.0204782
11.1674
0.0209035
11.1641
0.0213378
11.1607
0.0217813
11.1572
0.0222341
11.1537
0.0226964
11.1501
0.0231685
11.1464
0.0236505
11.1426
0.0241427
11.1387
0.0246454
11.1348
0.0251586
11.1307
0.0256827
11.1266
0.0262179
11.1224
0.0267644
11.1181
0.0273225
11.1137
0.0278924
11.1092
0.0284744
11.1046
0.0290688
11.0999
0.0296758
11.0951
0.0302958
11.0902
0.030929
11.0852
0.0315756
11.0801
0.032236
11.0749
0.0329106
11.0695
0.0335996
11.0641
0.0343034
11.0585
0.0350222
11.0528
0.0357566
11.0469
0.0365067
11.041
0.037273
11.0349
0.0380557
11.0287
0.0388554
11.0223
0.0396725
11.0158
0.0405072
11.0091
0.04136
11.0023
0.0422315
10.9954
0.0431219
10.9883
0.0440317
10.981
0.0449615
10.9736
0.0459117
10.966
0.0468827
10.9582
0.0478752
10.9503
0.0488896
10.9422
0.0499265
10.9339
0.0509864
10.9254
0.05207
10.9167
0.0531778
10.9078
0.0543104
10.8988
0.0554687
10.8895
0.0566531
10.88
0.0578644
10.8703
0.0591033
10.8604
0.0603708
10.8503
0.0616673
10.8399
0.062994
10.8293
0.0643515
10.8185
0.0657409
10.8074
0.067163
10.7961
0.0686188
10.7845
0.0701094
10.7726
0.0716358
10.7605
0.0731992
10.7481
0.0748006
10.7354
0.0764414
10.7225
0.0781226
10.7092
0.0798457
10.6956
0.0816121
10.6817
0.083423
10.6675
0.0852799
10.653
0.0871845
10.6381
0.0891382
10.6229
0.0911426
10.6074
0.0931994
10.5915
0.0953103
10.5752
0.0974771
10.5586
0.0997016
10.5415
0.101986
10.5241
0.104331
10.5063
0.10674
10.488
0.109214
10.4694
0.111756
10.4503
0.114368
10.4307
0.117051
10.4107
0.119808
10.3902
0.122641
10.3693
0.125552
10.3479
0.128544
10.3259
0.131618
10.3035
0.134778
10.2805
0.138025
10.2571
0.141363
10.233
0.144792
10.2084
0.148316
10.1832
0.151937
10.1574
0.155658
10.1311
0.159481
10.1041
0.163408
10.0764
0.167442
10.0482
0.171585
10.0192
0.175841
9.98961
0.18021
9.9593
0.184697
9.92828
0.189303
9.89653
0.194031
9.86404
0.198884
9.83078
0.203864
9.79675
0.208974
9.76191
0.214216
9.72625
0.219593
9.68976
0.225108
9.65241
0.230763
9.61418
0.23656
9.57505
0.242504
9.535
0.248595
9.49401
0.254838
9.45205
0.261234
9.40911
0.267787
9.36516
0.2745
9.32017
0.281374
9.27413
0.288414
9.22699
0.295621
9.17875
0.303
9.12938
0.310552
9.07884
0.318281
9.02711
0.326189
8.97416
0.33428
8.91996
0.342557
8.86448
0.351022
8.8077
0.359678
8.74958
0.368529
8.6901
0.377576
8.62921
0.386824
8.56688
0.396274
8.50309
0.40593
8.4378
0.415791
8.37098
0.425875
8.30259
0.436116
0.446835
10.7018
0.0128863
-10.7034
10.7002
0.0131528
10.6986
0.0134232
10.6969
0.0137067
10.6952
0.0139915
10.6934
0.0142814
10.6916
0.0145772
10.6898
0.0148793
10.6879
0.0151878
10.686
0.0155027
10.684
0.0158244
10.6821
0.0161528
10.68
0.0164883
10.6779
0.0168308
10.6758
0.0171806
10.6736
0.0175378
10.6714
0.0179027
10.6691
0.0182752
10.6668
0.0186556
10.6645
0.0190442
10.662
0.0194409
10.6596
0.0198461
10.6571
0.0202599
10.6545
0.0206825
10.6518
0.0211141
10.6492
0.0215548
10.6464
0.0220049
10.6436
0.0224646
10.6407
0.0229341
10.6378
0.0234135
10.6348
0.0239032
10.6317
0.0244033
10.6286
0.024914
10.6254
0.0254357
10.6221
0.0259684
10.6188
0.0265126
10.6153
0.0270683
10.6119
0.0276359
10.6083
0.0282156
10.6046
0.0288078
10.6009
0.0294126
10.5971
0.0300303
10.5932
0.0306613
10.5892
0.0313058
10.5851
0.0319641
10.581
0.0326366
10.5767
0.0333235
10.5724
0.0340252
10.5679
0.034742
10.5634
0.0354743
10.5587
0.0362223
10.554
0.0369866
10.5491
0.0377673
10.5442
0.0385649
10.5391
0.0393798
10.5339
0.0402124
10.5286
0.0410631
10.5232
0.0419323
10.5176
0.0428204
10.5119
0.0437279
10.5061
0.0446552
10.5002
0.0456028
10.4941
0.0465712
10.4879
0.0475608
10.4816
0.0485721
10.4751
0.0496058
10.4685
0.0506622
10.4617
0.051742
10.4548
0.0528457
10.4477
0.053974
10.4404
0.0551272
10.433
0.0563063
10.4254
0.0575117
10.4177
0.0587441
10.4097
0.0600042
10.4016
0.0612928
10.3933
0.0626104
10.3848
0.063958
10.3762
0.0653363
10.3673
0.0667461
10.3582
0.0681883
10.3489
0.0696638
10.3394
0.0711734
10.3297
0.0727182
10.3197
0.0742991
10.3095
0.0759171
10.2991
0.0775734
10.2885
0.079269
10.2776
0.0810052
10.2664
0.0827831
10.255
0.084604
10.2434
0.0864692
10.2314
0.0883802
10.2192
0.0903382
10.2067
0.0923447
10.1939
0.0944013
10.1808
0.0965096
10.1674
0.0986711
10.1537
0.100888
10.1397
0.103161
10.1254
0.105493
10.1107
0.107885
10.0957
0.110339
10.0803
0.112858
10.0645
0.115443
10.0484
0.118096
10.0319
0.12082
10.0151
0.123617
9.99778
0.126488
9.9801
0.129437
9.962
0.132464
9.94348
0.135574
9.92452
0.138768
9.90511
0.142049
9.88524
0.145419
9.86491
0.14888
9.84409
0.152436
9.82278
0.156089
9.80096
0.159841
9.77863
0.163695
9.75577
0.167653
9.73236
0.17172
9.70841
0.175896
9.68388
0.180185
9.65877
0.18459
9.63306
0.189113
9.60675
0.193758
9.57981
0.198526
9.55222
0.203422
9.52399
0.208447
9.49508
0.213605
9.46549
0.218898
9.43519
0.224329
9.40417
0.229902
9.37242
0.235619
9.33991
0.241484
9.30662
0.247499
9.27255
0.253666
9.23767
0.259991
9.20195
0.266475
9.16539
0.273121
9.12796
0.279933
9.08965
0.286914
9.05042
0.294067
9.01026
0.301395
8.96914
0.308902
8.92705
0.316591
8.88396
0.324466
8.83984
0.332529
8.79468
0.340784
8.74844
0.349236
8.70111
0.357886
8.65265
0.366739
8.60304
0.375799
8.55225
0.385068
8.50026
0.394551
8.44703
0.40425
8.39254
0.414171
8.33675
0.424315
8.27964
0.434686
8.22118
0.445289
8.16133
0.456125
8.10006
0.467199
8.03734
0.478511
7.97313
0.490079
7.90741
0.501838
0.514109
10.1889
0.0143292
-10.1903
10.1874
0.0146268
10.1859
0.0149291
10.1844
0.0152448
10.1828
0.0155628
10.1812
0.0158867
10.1796
0.0162175
10.1779
0.0165552
10.1762
0.0169001
10.1744
0.0172524
10.1726
0.0176122
10.1708
0.0179797
10.1689
0.018355
10.167
0.0187384
10.1651
0.01913
10.1631
0.01953
10.161
0.0199386
10.159
0.0203558
10.1568
0.0207821
10.1547
0.0212174
10.1524
0.0216621
10.1502
0.0221163
10.1479
0.0225803
10.1455
0.0230542
10.1431
0.0235383
10.1406
0.0240327
10.138
0.0245378
10.1355
0.0250537
10.1328
0.0255807
10.1301
0.0261191
10.1273
0.026669
10.1245
0.0272307
10.1216
0.0278045
10.1187
0.0283907
10.1156
0.0289895
10.1126
0.0296012
10.1094
0.030226
10.1062
0.0308644
10.1029
0.0315166
10.0995
0.0321828
10.096
0.0328634
10.0925
0.0335587
10.0889
0.0342691
10.0852
0.0349949
10.0814
0.0357364
10.0776
0.036494
10.0736
0.037268
10.0696
0.0380589
10.0655
0.0388669
10.0613
0.0396925
10.057
0.0405362
10.0525
0.0413982
10.048
0.042279
10.0434
0.0431791
10.0387
0.0440989
10.0339
0.0450389
10.0289
0.0459994
10.0239
0.0469811
10.0187
0.0479843
10.0134
0.0490097
10.008
0.0500576
10.0025
0.0511286
9.99686
0.0522234
9.99108
0.0533424
9.98517
0.0544862
9.97912
0.0556555
9.97293
0.0568507
9.9666
0.0580727
9.96012
0.0593219
9.95349
0.0605991
9.94672
0.0619049
9.93978
0.0632401
9.93269
0.0646053
9.92543
0.0660015
9.91801
0.0674292
9.91041
0.0688894
9.90264
0.0703829
9.89469
0.0719105
9.88655
0.0734731
9.87822
0.0750717
9.8697
0.0767072
9.86099
0.0783807
9.85207
0.0800931
9.84294
0.0818456
9.8336
0.0836392
9.82404
0.0854752
9.81426
0.0873548
9.80425
0.0892791
9.79401
0.0912496
9.78352
0.0932675
9.77279
0.0953343
9.76181
0.0974515
9.75057
0.0996205
9.73906
0.101843
9.72729
0.10412
9.71523
0.106455
9.7029
0.108847
9.69027
0.111301
9.67734
0.113816
9.66411
0.116395
9.65056
0.119041
9.63669
0.121754
9.62249
0.124538
9.60795
0.127394
9.59307
0.130325
9.57783
0.133333
9.56223
0.13642
9.54626
0.139589
9.52991
0.142841
9.51317
0.146181
9.49602
0.149609
9.47847
0.153129
9.46049
0.156744
9.44208
0.160455
9.42324
0.164266
9.40394
0.16818
9.38417
0.172199
9.36394
0.176326
9.34321
0.180565
9.32199
0.184917
9.30026
0.189386
9.278
0.193975
9.25521
0.198686
9.23187
0.203524
9.20797
0.208491
9.1835
0.213589
9.15843
0.218823
9.13277
0.224194
9.10648
0.229708
9.07956
0.235365
9.052
0.241171
9.02377
0.247127
8.99486
0.253238
8.96525
0.259506
8.93494
0.265935
8.90389
0.272528
8.8721
0.279289
8.83955
0.286221
8.80621
0.293327
8.77208
0.300611
8.73712
0.308077
8.70132
0.315728
8.66467
0.323568
8.62714
0.3316
8.5887
0.339829
8.54935
0.348257
8.50905
0.356889
8.46779
0.365729
8.42554
0.374781
8.38227
0.384049
8.33797
0.393536
8.29261
0.403247
8.24616
0.413186
8.1986
0.423357
8.14991
0.433765
8.10005
0.444412
8.04899
0.455305
7.99672
0.466446
7.94319
0.47784
7.88839
0.48949
7.83227
0.501401
7.77482
0.513577
7.716
0.526022
7.65577
0.538736
7.59412
0.551738
7.53099
0.564963
0.578734
9.70043
0.0156468
-9.70175
9.69909
0.0159733
9.69771
0.0163052
9.6963
0.0166507
9.69487
0.0169995
9.6934
0.0173551
9.6919
0.0177182
9.69036
0.0180891
9.6888
0.0184679
9.68719
0.0188549
9.68556
0.0192502
9.68388
0.019654
9.68217
0.0200666
9.68042
0.020488
9.67863
0.0209186
9.6768
0.0213584
9.67493
0.0218077
9.67302
0.0222667
9.67107
0.0227357
9.66907
0.0232147
9.66703
0.0237041
9.66494
0.0242041
9.66281
0.024715
9.66063
0.0252368
9.65839
0.0257699
9.65611
0.0263146
9.65378
0.0268711
9.65139
0.0274396
9.64895
0.0280205
9.64646
0.0286139
9.64391
0.0292202
9.6413
0.0298397
9.63863
0.0304726
9.6359
0.0311193
9.63311
0.03178
9.63026
0.032455
9.62734
0.0331448
9.62435
0.0338495
9.6213
0.0345697
9.61818
0.0353054
9.61498
0.0360573
9.61172
0.0368255
9.60837
0.0376105
9.60496
0.0384127
9.60146
0.0392324
9.59788
0.0400701
9.59423
0.0409261
9.59048
0.0418008
9.58666
0.0426948
9.58274
0.0436084
9.57873
0.044542
9.57464
0.0454962
9.57044
0.0464715
9.56615
0.0474682
9.56177
0.0484869
9.55728
0.0495281
9.55268
0.0505924
9.54799
0.0516803
9.54318
0.0527922
9.53826
0.0539289
9.53322
0.0550908
9.52807
0.0562787
9.52281
0.0574929
9.51741
0.0587343
9.5119
0.0600035
9.50625
0.0613011
9.50047
0.0626278
9.49456
0.0639844
9.48851
0.0653715
9.48232
0.0667898
9.47599
0.0682403
9.4695
0.0697235
9.46287
0.0712405
9.45608
0.072792
9.44913
0.0743789
9.44201
0.0760021
9.43473
0.0776625
9.42728
0.0793612
9.41966
0.081099
9.41185
0.0828772
9.40386
0.0846966
9.39569
0.0865585
9.38731
0.0884639
9.37875
0.0904142
9.36997
0.0924105
9.361
0.0944541
9.3518
0.0965465
9.34239
0.0986889
9.33276
0.100883
9.3229
0.10313
9.3128
0.105431
9.30246
0.107789
9.29188
0.110204
9.28104
0.11268
9.26995
0.115216
9.25859
0.117816
9.24695
0.120481
9.23504
0.123213
9.22284
0.126014
9.21035
0.128886
9.19756
0.131832
9.18446
0.134853
9.17105
0.137953
9.15731
0.141133
9.14324
0.144395
9.12883
0.147743
9.11407
0.151179
9.09895
0.154704
9.08347
0.158323
9.06761
0.162038
9.05137
0.165851
9.03474
0.169766
9.0177
0.173784
9.00024
0.17791
8.98236
0.182146
8.96405
0.186495
8.94528
0.19096
8.92607
0.195544
8.90638
0.200251
8.88621
0.205083
8.86556
0.210043
8.8444
0.215136
8.82272
0.220364
8.80051
0.22573
8.77776
0.231238
8.75446
0.236891
8.73059
0.242693
8.70614
0.248647
8.68109
0.254756
8.65543
0.261024
8.62915
0.267454
8.60223
0.274051
8.57465
0.280817
8.5464
0.287756
8.51746
0.294872
8.48782
0.302168
8.45746
0.309649
8.42636
0.317318
8.39451
0.325179
8.36189
0.333236
8.32847
0.341493
8.29424
0.349954
8.25919
0.358622
8.22329
0.367503
8.18652
0.3766
8.14885
0.385918
8.11028
0.395461
8.07078
0.405232
8.03032
0.415238
7.98889
0.425482
7.94646
0.435969
7.903
0.446704
7.85849
0.457691
7.81292
0.468935
7.76624
0.480441
7.71844
0.492213
7.66949
0.504256
7.61936
0.516576
7.56802
0.529176
7.51545
0.542061
7.46162
0.555236
7.40649
0.568705
7.35004
0.582473
7.29223
0.59654
7.23304
0.610926
7.17244
0.625568
0.640786
9.23527
0.0168497
-9.23647
9.23404
0.0172029
9.23278
0.0175624
9.2315
0.0179356
9.23019
0.018313
9.22884
0.018698
9.22747
0.0190912
9.22607
0.0194929
9.22463
0.0199033
9.22316
0.0203226
9.22166
0.020751
9.22013
0.0211886
9.21856
0.0216358
9.21695
0.0220928
9.21531
0.0225596
9.21363
0.0230365
9.21192
0.0235239
9.21016
0.0240219
9.20837
0.0245307
9.20653
0.0250505
9.20465
0.0255817
9.20273
0.0261244
9.20077
0.026679
9.19876
0.0272457
9.19671
0.0278247
9.1946
0.0284164
9.19245
0.0290209
9.19025
0.0296387
9.18801
0.03027
9.1857
0.030915
9.18335
0.0315741
9.18094
0.0322477
9.17848
0.032936
9.17596
0.0336393
9.17338
0.0343581
9.17074
0.0350926
9.16804
0.0358432
9.16528
0.0366103
9.16246
0.0373942
9.15957
0.0381953
9.15661
0.0390141
9.15359
0.0398508
9.15049
0.040706
9.14732
0.04158
9.14408
0.0424732
9.14077
0.0433862
9.13737
0.0443193
9.1339
0.0452731
9.13035
0.0462479
9.12671
0.0472443
9.12299
0.0482628
9.11918
0.0493039
9.11529
0.0503681
9.1113
0.051456
9.10722
0.052568
9.10304
0.0537048
9.09877
0.054867
9.09439
0.0560551
9.08991
0.0572698
9.08533
0.0585116
9.08064
0.0597813
9.07584
0.0610794
9.07093
0.0624068
9.0659
0.0637639
9.06075
0.0651517
9.05548
0.0665708
9.05009
0.0680219
9.04456
0.069506
9.03891
0.0710237
9.03313
0.0725758
9.0272
0.0741633
9.02114
0.0757871
9.01493
0.0774479
9.00858
0.0791468
9.00207
0.0808847
8.99541
0.0826627
8.98859
0.0844817
8.98161
0.0863429
8.97446
0.0882472
8.96714
0.090196
8.95965
0.0921903
8.95198
0.0942314
8.94412
0.0963206
8.93607
0.0984591
8.92784
0.100648
8.9194
0.10289
8.91076
0.105185
8.90192
0.107535
8.89286
0.109942
8.88358
0.112407
8.87408
0.114933
8.86435
0.11752
8.85438
0.120171
8.84417
0.122887
8.83372
0.125671
8.82301
0.128525
8.81204
0.13145
8.8008
0.134448
8.78929
0.137523
8.7775
0.140676
8.76543
0.143909
8.75305
0.147226
8.74038
0.150627
8.72739
0.154117
8.71409
0.157698
8.70046
0.161372
8.6865
0.165142
8.67219
0.16901
8.65754
0.172981
8.64252
0.177056
8.62713
0.181239
8.61137
0.185532
8.59521
0.189939
8.57866
0.194463
8.5617
0.199107
8.54432
0.203875
8.52651
0.208769
8.50826
0.213793
8.48956
0.21895
8.4704
0.224244
8.45076
0.229678
8.43064
0.235256
8.41003
0.240981
8.3889
0.246857
8.36725
0.252886
8.34507
0.259074
8.32234
0.265424
8.29905
0.271939
8.27518
0.278622
8.25072
0.285479
8.22567
0.292512
8.19999
0.299726
8.17368
0.307124
8.14673
0.31471
8.11911
0.322489
8.09082
0.330464
8.06183
0.33864
8.03212
0.34702
8.0017
0.355609
7.97052
0.364411
7.93858
0.373431
7.90586
0.382672
7.87235
0.39214
7.83801
0.40184
7.80284
0.411774
7.7668
0.42195
7.72989
0.43237
7.69209
0.443041
7.65336
0.453967
7.61369
0.465152
7.57305
0.476604
7.53143
0.488325
7.4888
0.500323
7.44513
0.512601
7.40041
0.525166
7.3546
0.538023
7.30768
0.551176
7.25962
0.564632
7.2104
0.578396
7.15999
0.592472
7.10836
0.606866
7.05548