/*--------------------------------*- C++ -*----------------------------------*\
  =========                 |
  \\      /  F ield         | OpenFOAM: The Open Source CFD Toolbox
   \\    /   O peration     | Website:  https://openfoam.org
    \\  /    A nd           | Version:  13
     \\/     M anipulation  |
\*---------------------------------------------------------------------------*/
FoamFile
{
    format      ascii;
    class       volVectorField;
    location    "0.05";
    object      U;
}
// * * * * * * * * * * * * * * * * * * * * * * * * * * * * * * * * * * * * * //

dimensions      [0 1 -1 0 0 0 0];

internalField   nonuniform List<vector> 
68864
(
(30.0103 -0.0810269 -1.31702e-21)
(30.0103 -0.081085 -4.31183e-23)
(30.0103 -0.0812446 1.06481e-20)
(30.0103 -0.0810099 -1.18918e-20)
(30.0103 -0.0810304 1.14855e-21)
(30.0103 -0.0811176 -1.77033e-21)
(30.0103 -0.0812253 5.39532e-21)
(30.0103 -0.0813437 -1.76797e-21)
(30.0103 -0.0814705 2.00156e-21)
(30.0103 -0.0816053 -7.27655e-21)
(30.0103 -0.0817481 4.15236e-21)
(30.0103 -0.0818991 5.15758e-22)
(30.0103 -0.0820584 -8.50749e-21)
(30.0103 -0.0822262 3.45674e-21)
(30.0103 -0.0824027 4.88142e-21)
(30.0103 -0.082588 -3.22191e-21)
(30.0103 -0.0827823 4.98502e-21)
(30.0103 -0.0829857 3.56235e-21)
(30.0103 -0.0831985 -1.77216e-21)
(30.0103 -0.0834207 -5.8833e-21)
(30.0103 -0.0836525 8.67447e-21)
(30.0103 -0.0838941 4.45992e-21)
(30.0103 -0.0841456 -6.09343e-21)
(30.0103 -0.0844071 -6.91575e-21)
(30.0104 -0.0846787 4.11259e-21)
(30.0104 -0.0849606 -8.15128e-21)
(30.0104 -0.0852528 3.71913e-21)
(30.0104 -0.0855556 8.1953e-21)
(30.0104 -0.0858689 -1.80247e-20)
(30.0105 -0.0861928 -1.28071e-20)
(30.0105 -0.0865275 3.8341e-21)
(30.0105 -0.086873 1.06087e-20)
(30.0105 -0.0872294 -7.78823e-21)
(30.0106 -0.0875968 2.06537e-20)
(30.0106 -0.0879751 1.24189e-20)
(30.0106 -0.0883646 -2.2375e-20)
(30.0107 -0.0887651 2.29806e-20)
(30.0107 -0.0891767 -1.10843e-20)
(30.0107 -0.0895995 -1.38431e-20)
(30.0108 -0.0900335 2.86073e-20)
(30.0108 -0.0904787 -2.7983e-20)
(30.0109 -0.090935 2.70841e-20)
(30.0109 -0.0914025 -9.79911e-21)
(30.011 -0.0918812 4.10801e-22)
(30.011 -0.092371 -2.94499e-20)
(30.0111 -0.0928719 3.41131e-20)
(30.0111 -0.0933838 -1.04626e-20)
(30.0112 -0.0939068 -1.02395e-20)
(30.0113 -0.0944407 -9.61608e-22)
(30.0113 -0.0949854 1.42082e-20)
(30.0114 -0.0955409 -1.13759e-20)
(30.0115 -0.0961071 -4.20854e-21)
(30.0116 -0.0966838 2.24599e-20)
(30.0116 -0.097271 -9.7221e-21)
(30.0117 -0.0978684 4.34224e-21)
(30.0118 -0.098476 -1.00623e-20)
(30.0119 -0.0990937 1.47038e-20)
(30.012 -0.0997211 -1.30033e-20)
(30.0121 -0.100358 8.89741e-21)
(30.0122 -0.101005 -2.15829e-20)
(30.0123 -0.10166 3.35638e-21)
(30.0124 -0.102325 1.63342e-20)
(30.0126 -0.102999 -4.22913e-21)
(30.0127 -0.10368 1.24006e-20)
(30.0128 -0.10437 -1.32056e-20)
(30.0129 -0.105068 4.81578e-21)
(30.0131 -0.105774 -5.78581e-21)
(30.0132 -0.106486 3.88176e-21)
(30.0134 -0.107206 3.31841e-22)
(30.0135 -0.107931 4.86782e-21)
(30.0137 -0.108663 4.68336e-21)
(30.0138 -0.1094 -4.82274e-21)
(30.014 -0.110142 -1.86729e-20)
(30.0142 -0.110888 2.09431e-20)
(30.0144 -0.111638 -9.05038e-21)
(30.0145 -0.112391 -7.37369e-21)
(30.0147 -0.113146 2.39549e-20)
(30.0149 -0.113903 -2.73749e-20)
(30.0151 -0.11466 1.06986e-20)
(30.0153 -0.115417 -1.50208e-20)
(30.0156 -0.116173 2.7219e-20)
(30.0158 -0.116926 -1.81402e-20)
(30.016 -0.117676 4.89235e-21)
(30.0162 -0.118421 1.29784e-20)
(30.0165 -0.119159 -1.60835e-20)
(30.0167 -0.119891 -2.41395e-21)
(30.017 -0.120612 1.29312e-20)
(30.0172 -0.121324 -4.53127e-21)
(30.0175 -0.122022 -8.8481e-21)
(30.0177 -0.122706 1.59192e-20)
(30.018 -0.123374 4.47191e-21)
(30.0183 -0.124023 4.74103e-21)
(30.0185 -0.124652 -2.01831e-20)
(30.0188 -0.125258 7.94528e-21)
(30.0191 -0.125838 -2.09961e-20)
(30.0194 -0.126392 2.41382e-20)
(30.0196 -0.126915 -3.25212e-20)
(30.0199 -0.127406 2.52702e-20)
(30.0202 -0.127862 1.29883e-21)
(30.0205 -0.12828 -2.45788e-20)
(30.0207 -0.128658 3.48524e-20)
(30.021 -0.128994 -1.16162e-20)
(30.0213 -0.129284 -1.59641e-20)
(30.0215 -0.129526 2.15746e-21)
(30.0218 -0.129718 6.34716e-21)
(30.022 -0.129858 -3.8616e-21)
(30.0223 -0.129942 1.15082e-20)
(30.0225 -0.129969 3.20894e-21)
(30.0227 -0.129937 -1.39836e-20)
(30.0229 -0.129843 2.13468e-21)
(30.0231 -0.129686 1.97002e-21)
(30.0233 -0.129464 9.17151e-22)
(30.0235 -0.129176 2.63778e-21)
(30.0237 -0.12882 -7.13135e-21)
(30.0238 -0.128395 9.00873e-21)
(30.0239 -0.1279 -3.75828e-21)
(30.024 -0.127336 4.1849e-22)
(30.0241 -0.126701 4.9582e-21)
(30.0242 -0.125995 -2.17193e-21)
(30.0243 -0.125218 -2.79297e-21)
(30.0243 -0.124371 -1.67009e-21)
(30.0243 -0.123454 3.0499e-21)
(30.0243 -0.122469 -1.97615e-21)
(30.0243 -0.121415 3.72649e-21)
(30.0243 -0.120295 -4.75069e-22)
(30.0242 -0.119111 2.46087e-24)
(30.0241 -0.117863 -1.60862e-21)
(30.024 -0.116554 -2.3595e-22)
(30.0239 -0.115187 -2.27903e-22)
(30.0238 -0.113763 3.9856e-22)
(30.0236 -0.112286 -6.42149e-23)
(30.0234 -0.110758 -6.52751e-23)
(30.0232 -0.109182 1.04745e-22)
(30.023 -0.107561 4.18001e-24)
(30.0228 -0.1059 -4.10474e-22)
(30.0226 -0.1042 7.63457e-22)
(30.0223 -0.102466 -2.65931e-22)
(30.022 -0.100701 -7.36094e-23)
(30.0217 -0.0989086 -1.14151e-22)
(30.0215 -0.0970929 -8.18642e-22)
(30.0211 -0.0952575 1.84626e-21)
(30.0208 -0.0934062 -2.15765e-21)
(30.0205 -0.0915429 1.68865e-21)
(30.0202 -0.0896713 8.69456e-22)
(30.0198 -0.0877953 -4.77074e-22)
(30.0195 -0.0859187 -1.91685e-21)
(30.0191 -0.0840453 3.55345e-22)
(30.0187 -0.0821788 1.62818e-21)
(30.0184 -0.0803229 -7.97405e-22)
(30.018 -0.0784814 -1.08731e-21)
(30.0176 -0.0766579 1.43415e-21)
(30.0173 -0.0748559 -9.00098e-22)
(30.0169 -0.0730789 2.35787e-22)
(30.0165 -0.0713306 4.81355e-22)
(30.0161 -0.0696141 9.30559e-24)
(30.0158 -0.067933 -2.28138e-22)
(30.0154 -0.0662905 -2.76594e-22)
(30.015 -0.0646897 2.6341e-22)
(30.0146 -0.0631338 -5.72686e-23)
(30.0143 -0.0616257 -5.84767e-24)
(30.0139 -0.0601681 -3.07798e-23)
(30.0136 -0.0587643 -9.83483e-23)
(30.0132 -0.0574139 8.80419e-23)
(30.0129 -0.0561303 -2.82702e-23)
(30.0125 -0.0548652 2.45155e-23)
(30.0123 -0.0538373 -7.55732e-25)
(30.0118 -0.0520756 9.43291e-25)
(30.0121 -0.0808878 -3.02598e-21)
(30.0121 -0.0809229 2.73848e-21)
(30.0121 -0.0810587 -3.30867e-20)
(30.0121 -0.0808064 5.10351e-21)
(30.0121 -0.0808094 5.9992e-21)
(30.0121 -0.0808787 2.46431e-20)
(30.0122 -0.080969 -3.03652e-20)
(30.0122 -0.0810708 2.99517e-20)
(30.0122 -0.081182 -4.12709e-20)
(30.0123 -0.0813022 4.58509e-21)
(30.0123 -0.0814312 1.78363e-20)
(30.0123 -0.0815692 -1.74269e-20)
(30.0124 -0.0817162 -1.50592e-21)
(30.0124 -0.0818725 1.66427e-20)
(30.0124 -0.0820382 6.87677e-22)
(30.0125 -0.0822134 -6.37857e-21)
(30.0125 -0.0823981 1.85936e-20)
(30.0126 -0.0825926 -1.34574e-20)
(30.0126 -0.0827969 4.11413e-21)
(30.0127 -0.0830112 3.7449e-21)
(30.0127 -0.0832356 -4.31365e-21)
(30.0128 -0.0834701 -3.41639e-21)
(30.0128 -0.083715 2.99288e-20)
(30.0129 -0.0839702 -4.04213e-20)
(30.0129 -0.084236 -6.34393e-21)
(30.013 -0.0845124 3.23039e-20)
(30.0131 -0.0847995 -1.79592e-20)
(30.0131 -0.0850974 1.17663e-20)
(30.0132 -0.0854062 -2.11924e-20)
(30.0133 -0.085726 1.24941e-20)
(30.0133 -0.0860569 -1.56181e-20)
(30.0134 -0.0863989 3.19566e-20)
(30.0135 -0.0867521 -2.58585e-20)
(30.0136 -0.0871167 -1.97196e-20)
(30.0137 -0.0874926 7.54297e-20)
(30.0138 -0.08788 3.37131e-21)
(30.0139 -0.0882788 -3.55334e-20)
(30.014 -0.0886892 2.10371e-21)
(30.0141 -0.0891111 1.39055e-20)
(30.0142 -0.0895447 -7.83959e-21)
(30.0143 -0.0899899 -2.26654e-20)
(30.0144 -0.0904468 1.45175e-20)
(30.0145 -0.0909154 1.71768e-20)
(30.0147 -0.0913956 -2.40515e-20)
(30.0148 -0.0918876 -1.76695e-20)
(30.0149 -0.0923912 3.78694e-20)
(30.0151 -0.0929065 -6.52155e-20)
(30.0152 -0.0934334 7.85235e-20)
(30.0154 -0.0939719 -4.38234e-20)
(30.0155 -0.0945219 -2.33687e-20)
(30.0157 -0.0950835 7.6088e-21)
(30.0158 -0.0956564 5.4265e-20)
(30.016 -0.0962407 -4.14288e-22)
(30.0162 -0.0968362 4.43378e-21)
(30.0164 -0.0974428 -4.92167e-20)
(30.0165 -0.0980605 -1.86371e-20)
(30.0167 -0.098689 3.21287e-20)
(30.0169 -0.0993283 -1.55922e-20)
(30.0171 -0.0999782 5.76813e-21)
(30.0173 -0.100638 -2.44252e-21)
(30.0176 -0.101309 1.41778e-21)
(30.0178 -0.101989 1.47192e-20)
(30.018 -0.10268 4.14373e-20)
(30.0183 -0.10338 -5.82786e-20)
(30.0185 -0.104089 2.85494e-20)
(30.0187 -0.104807 -4.42661e-20)
(30.019 -0.105534 -1.46213e-20)
(30.0193 -0.10627 4.71559e-20)
(30.0195 -0.107013 1.76877e-20)
(30.0198 -0.107764 -1.18812e-20)
(30.0201 -0.108523 -2.76488e-20)
(30.0204 -0.109288 4.15797e-20)
(30.0207 -0.11006 -1.89641e-20)
(30.021 -0.110837 1.52421e-20)
(30.0213 -0.111619 -2.73277e-20)
(30.0217 -0.112406 2.41377e-20)
(30.022 -0.113197 1.44127e-20)
(30.0223 -0.113991 1.10598e-21)
(30.0227 -0.114787 -4.64636e-20)
(30.023 -0.115584 3.29843e-20)
(30.0234 -0.116381 -5.19232e-20)
(30.0238 -0.117177 3.49479e-20)
(30.0242 -0.117971 -1.55041e-20)
(30.0245 -0.118762 1.92624e-20)
(30.0249 -0.119547 -1.59009e-20)
(30.0253 -0.120327 3.08066e-20)
(30.0257 -0.121098 -2.311e-20)
(30.0261 -0.121859 6.47535e-21)
(30.0266 -0.122609 -1.92254e-21)
(30.027 -0.123346 -1.86818e-20)
(30.0274 -0.124066 3.66031e-20)
(30.0278 -0.124769 -1.62458e-20)
(30.0283 -0.125452 -1.03419e-20)
(30.0287 -0.126112 -7.63525e-21)
(30.0291 -0.126747 -3.10135e-21)
(30.0295 -0.127355 8.42459e-21)
(30.03 -0.127933 1.76815e-20)
(30.0304 -0.128478 8.73088e-21)
(30.0308 -0.128987 -2.93835e-20)
(30.0312 -0.129458 -8.35703e-21)
(30.0317 -0.129888 8.83741e-21)
(30.0321 -0.130274 1.64563e-20)
(30.0325 -0.130614 3.81431e-21)
(30.0328 -0.130904 -4.12304e-21)
(30.0332 -0.131142 -1.0099e-20)
(30.0336 -0.131326 -4.13068e-21)
(30.0339 -0.131453 6.44872e-21)
(30.0343 -0.13152 1.54426e-20)
(30.0346 -0.131525 -1.47313e-20)
(30.0349 -0.131466 4.09749e-21)
(30.0352 -0.131341 -1.00381e-20)
(30.0354 -0.131149 1.54398e-20)
(30.0357 -0.130887 -7.06025e-21)
(30.0359 -0.130554 -2.46275e-21)
(30.0361 -0.130149 1.10142e-20)
(30.0362 -0.129671 -1.25897e-20)
(30.0364 -0.12912 -2.04905e-22)
(30.0365 -0.128494 3.75971e-21)
(30.0366 -0.127794 5.67405e-21)
(30.0367 -0.12702 -4.924e-21)
(30.0367 -0.126171 -3.87152e-21)
(30.0367 -0.12525 6.06558e-21)
(30.0367 -0.124255 -3.08545e-21)
(30.0366 -0.123189 6.73794e-22)
(30.0365 -0.122053 3.97359e-22)
(30.0364 -0.120849 -2.88766e-21)
(30.0363 -0.119578 6.312e-22)
(30.0361 -0.118242 2.70783e-22)
(30.0359 -0.116844 2.95461e-21)
(30.0357 -0.115386 -1.00862e-21)
(30.0354 -0.113872 3.00593e-22)
(30.0352 -0.112304 -2.8169e-22)
(30.0349 -0.110684 1.25819e-22)
(30.0345 -0.109017 8.24996e-23)
(30.0342 -0.107306 -5.38375e-22)
(30.0338 -0.105555 9.93893e-22)
(30.0334 -0.103766 -9.39062e-22)
(30.033 -0.101944 1.20885e-21)
(30.0326 -0.100093 1.67327e-22)
(30.0321 -0.0982168 -2.16523e-21)
(30.0317 -0.0963188 3.3016e-22)
(30.0312 -0.0944032 1.0478e-21)
(30.0307 -0.0924742 -1.34592e-21)
(30.0302 -0.0905357 -6.74217e-22)
(30.0296 -0.0885918 2.91311e-21)
(30.0291 -0.0866464 4.34487e-22)
(30.0286 -0.0847036 -4.17939e-21)
(30.028 -0.0827673 4.05013e-21)
(30.0275 -0.0808416 -2.79547e-21)
(30.0269 -0.0789302 -1.38719e-21)
(30.0263 -0.077037 4.07411e-21)
(30.0258 -0.075166 -1.12653e-21)
(30.0252 -0.0733207 1.18359e-21)
(30.0246 -0.071505 -9.26073e-22)
(30.024 -0.0697226 -6.25456e-22)
(30.0234 -0.067977 8.65124e-22)
(30.0229 -0.0662718 -1.89216e-21)
(30.0223 -0.0646106 1.79092e-21)
(30.0217 -0.0629966 -7.49443e-22)
(30.0212 -0.0614334 1.83517e-22)
(30.0206 -0.059924 -4.91824e-22)
(30.02 -0.0584722 1.0018e-22)
(30.0195 -0.0570782 1.82158e-22)
(30.0189 -0.0557558 -1.31523e-22)
(30.0184 -0.0544594 1.2077e-22)
(30.018 -0.053405 -1.4504e-23)
(30.0172 -0.0516395 1.40255e-23)
(30.0076 -0.0815621 -2.29395e-20)
(30.0077 -0.0816094 -9.0116e-21)
(30.0078 -0.081756 -9.98676e-21)
(30.0078 -0.0815224 2.28747e-20)
(30.0079 -0.0815401 -2.88359e-20)
(30.008 -0.0816215 5.31595e-20)
(30.0081 -0.0817227 -7.4148e-21)
(30.0082 -0.0818352 2.08251e-21)
(30.0083 -0.0819572 3.6889e-22)
(30.0083 -0.0820881 5.41222e-21)
(30.0084 -0.0822276 -3.9075e-20)
(30.0085 -0.082376 1.43365e-20)
(30.0086 -0.0825335 1.77377e-20)
(30.0087 -0.0827001 1.75531e-20)
(30.0088 -0.082876 -2.24146e-20)
(30.009 -0.0830615 1.30791e-20)
(30.0091 -0.0832565 -2.11188e-21)
(30.0092 -0.0834612 1.53373e-21)
(30.0093 -0.0836758 -1.94272e-20)
(30.0094 -0.0839004 -3.28746e-21)
(30.0095 -0.0841351 -1.11524e-20)
(30.0097 -0.0843801 -1.2009e-20)
(30.0098 -0.0846354 1.93501e-20)
(30.0099 -0.0849011 5.51231e-21)
(30.0101 -0.0851775 -2.83043e-20)
(30.0102 -0.0854645 4.9213e-20)
(30.0104 -0.0857623 -3.98109e-20)
(30.0105 -0.086071 7.14461e-21)
(30.0107 -0.0863906 3.51273e-20)
(30.0108 -0.0867213 1.86617e-21)
(30.011 -0.0870631 -4.74797e-20)
(30.0111 -0.0874161 3.49538e-20)
(30.0113 -0.0877804 -4.01243e-20)
(30.0115 -0.088156 -8.27696e-21)
(30.0117 -0.088543 3.53786e-20)
(30.0118 -0.0889415 -7.58883e-21)
(30.012 -0.0893515 -1.20042e-20)
(30.0122 -0.0897731 2.25529e-20)
(30.0124 -0.0902062 6.37806e-21)
(30.0126 -0.0906509 1.8499e-20)
(30.0128 -0.0911072 -9.32371e-20)
(30.0131 -0.0915752 1.88247e-20)
(30.0133 -0.0920548 9.89703e-20)
(30.0135 -0.0925461 -1.12818e-19)
(30.0137 -0.093049 8.2047e-22)
(30.014 -0.0935635 6.27361e-20)
(30.0142 -0.0940895 5.19923e-20)
(30.0145 -0.0946271 -3.16171e-20)
(30.0147 -0.0951762 1.52821e-20)
(30.015 -0.0957366 -2.62204e-20)
(30.0153 -0.0963084 6.09322e-21)
(30.0156 -0.0968915 -2.80011e-20)
(30.0158 -0.0974857 5.66602e-20)
(30.0161 -0.098091 9.21737e-21)
(30.0164 -0.0987073 -5.19475e-20)
(30.0167 -0.0993343 -4.83795e-20)
(30.0171 -0.099972 1.11706e-20)
(30.0174 -0.10062 8.43936e-20)
(30.0177 -0.101279 -3.84844e-20)
(30.018 -0.101947 -3.8926e-20)
(30.0184 -0.102626 -2.21202e-20)
(30.0188 -0.103314 4.25972e-20)
(30.0191 -0.104012 6.93563e-20)
(30.0195 -0.104719 -9.75703e-20)
(30.0199 -0.105435 4.18364e-20)
(30.0203 -0.106159 1.63246e-20)
(30.0207 -0.106892 3.04357e-20)
(30.0211 -0.107633 -4.44673e-20)
(30.0215 -0.108382 1.2881e-20)
(30.0219 -0.109137 -1.55571e-20)
(30.0223 -0.1099 5.46154e-20)
(30.0228 -0.110668 -1.86931e-21)
(30.0232 -0.111443 -5.22786e-20)
(30.0237 -0.112222 1.11604e-20)
(30.0242 -0.113006 -1.8504e-21)
(30.0246 -0.113794 1.17313e-20)
(30.0251 -0.114584 -2.8863e-20)
(30.0256 -0.115377 -1.82751e-20)
(30.0261 -0.116171 -3.05881e-21)
(30.0266 -0.116966 1.82701e-20)
(30.0271 -0.117759 -2.48489e-20)
(30.0277 -0.118551 6.89679e-20)
(30.0282 -0.11934 -3.32599e-21)
(30.0287 -0.120123 -4.5777e-20)
(30.0293 -0.120901 5.63486e-21)
(30.0298 -0.121672 2.8661e-20)
(30.0304 -0.122433 -1.46972e-20)
(30.031 -0.123182 -5.28429e-20)
(30.0315 -0.123919 6.53082e-20)
(30.0321 -0.124641 -2.13614e-20)
(30.0327 -0.125346 -1.83098e-20)
(30.0333 -0.126032 -1.57043e-20)
(30.0338 -0.126696 9.70376e-21)
(30.0344 -0.127337 6.11598e-20)
(30.035 -0.127951 -2.64675e-20)
(30.0355 -0.128536 -1.16452e-20)
(30.0361 -0.129089 3.83218e-20)
(30.0367 -0.129609 -3.96337e-20)
(30.0372 -0.130091 3.22876e-20)
(30.0378 -0.130534 -3.19159e-20)
(30.0383 -0.130935 -5.99645e-21)
(30.0388 -0.13129 -5.05149e-22)
(30.0393 -0.131598 4.23456e-21)
(30.0398 -0.131856 1.24547e-20)
(30.0403 -0.132061 5.20162e-21)
(30.0408 -0.13221 -3.74856e-20)
(30.0412 -0.132301 1.84905e-20)
(30.0417 -0.132332 2.72598e-20)
(30.0421 -0.132301 -5.60915e-21)
(30.0425 -0.132205 -3.38195e-20)
(30.0428 -0.132043 3.56084e-20)
(30.0431 -0.131813 -1.7881e-20)
(30.0434 -0.131513 1.64455e-20)
(30.0437 -0.131143 -2.54952e-21)
(30.044 -0.1307 -2.32028e-20)
(30.0442 -0.130185 3.65771e-21)
(30.0444 -0.129596 3.37256e-21)
(30.0445 -0.128933 4.19921e-21)
(30.0446 -0.128196 -1.20984e-21)
(30.0447 -0.127386 -5.27393e-21)
(30.0448 -0.126502 -2.05364e-21)
(30.0448 -0.125545 -4.13065e-21)
(30.0448 -0.124516 1.22797e-20)
(30.0447 -0.123416 1.77135e-21)
(30.0446 -0.122247 -7.55386e-21)
(30.0445 -0.12101 7.17267e-22)
(30.0443 -0.119707 3.27472e-22)
(30.0442 -0.11834 -1.96814e-21)
(30.0439 -0.116913 1.85788e-21)
(30.0437 -0.115426 1.5285e-21)
(30.0434 -0.113883 9.35484e-22)
(30.0431 -0.112287 -8.90988e-22)
(30.0427 -0.110641 -3.55831e-23)
(30.0424 -0.108948 2.37967e-22)
(30.042 -0.107212 -3.80363e-22)
(30.0415 -0.105436 1.5081e-22)
(30.0411 -0.103623 -3.48452e-22)
(30.0406 -0.101779 1.71247e-22)
(30.0401 -0.0999052 -7.44968e-22)
(30.0396 -0.098007 1.15753e-21)
(30.039 -0.0960881 7.44466e-23)
(30.0385 -0.0941523 -1.0314e-21)
(30.0379 -0.0922037 -1.42264e-21)
(30.0373 -0.0902463 -1.02057e-21)
(30.0367 -0.088284 6.16572e-21)
(30.0361 -0.0863209 -1.38051e-21)
(30.0354 -0.084361 -5.37605e-21)
(30.0348 -0.0824083 4.03319e-21)
(30.0341 -0.0804667 7.25057e-22)
(30.0335 -0.0785401 -2.17496e-21)
(30.0328 -0.0766324 5.80844e-21)
(30.0321 -0.0747474 -4.7222e-21)
(30.0315 -0.072889 1.36046e-21)
(30.0308 -0.071061 -2.15648e-21)
(30.0301 -0.069267 1.30189e-21)
(30.0294 -0.0675107 -5.90425e-23)
(30.0287 -0.065796 -1.03525e-21)
(30.0281 -0.0641262 1.14467e-21)
(30.0274 -0.0625052 -1.20386e-21)
(30.0267 -0.0609364 1.8213e-21)
(30.026 -0.0594231 -2.33553e-22)
(30.0253 -0.0579693 -6.18206e-22)
(30.0247 -0.0565758 1.18414e-22)
(30.024 -0.0552563 -2.58949e-23)
(30.0233 -0.0539668 -1.33643e-22)
(30.0228 -0.0529191 4.32958e-23)
(30.0219 -0.0511709 -3.0966e-23)
(30.0061 -0.0835502 7.41281e-21)
(30.0062 -0.0835848 -1.15008e-20)
(30.0063 -0.0837173 2.7721e-20)
(30.0064 -0.0834766 -2.94505e-20)
(30.0065 -0.0834837 6.2401e-20)
(30.0066 -0.0835528 -8.88678e-20)
(30.0068 -0.0836412 4.86101e-20)
(30.0069 -0.0837409 3.6437e-20)
(30.007 -0.0838505 1.70632e-20)
(30.0071 -0.0839692 -4.56846e-20)
(30.0073 -0.0840968 3.85101e-20)
(30.0074 -0.0842334 -3.55125e-20)
(30.0075 -0.0843792 2.13848e-20)
(30.0077 -0.0845345 -1.9093e-20)
(30.0078 -0.0846994 3.97247e-21)
(30.008 -0.0848739 -2.82526e-20)
(30.0081 -0.0850583 -1.41865e-20)
(30.0083 -0.0852527 6.42806e-20)
(30.0084 -0.0854572 -1.86594e-20)
(30.0086 -0.085672 -5.63805e-20)
(30.0088 -0.0858972 -1.93014e-20)
(30.0089 -0.0861329 2.36597e-20)
(30.0091 -0.0863792 -2.66378e-20)
(30.0093 -0.0866364 5.2056e-20)
(30.0095 -0.0869044 -5.75142e-21)
(30.0097 -0.0871834 1.32455e-20)
(30.0099 -0.0874735 -3.49291e-20)
(30.0101 -0.0877749 2.66787e-20)
(30.0103 -0.0880875 2.57895e-20)
(30.0105 -0.0884115 2.27011e-20)
(30.0107 -0.0887471 -3.80654e-20)
(30.0109 -0.0890942 -3.49866e-21)
(30.0112 -0.0894529 -5.51753e-20)
(30.0114 -0.0898234 9.18251e-20)
(30.0116 -0.0902057 -7.59764e-20)
(30.0119 -0.0905998 5.46743e-21)
(30.0121 -0.0910058 2.28763e-20)
(30.0124 -0.0914237 -3.13523e-20)
(30.0126 -0.0918537 8.12077e-20)
(30.0129 -0.0922957 -8.87015e-20)
(30.0132 -0.0927497 9.88029e-20)
(30.0135 -0.0932157 -8.43651e-20)
(30.0138 -0.0936939 3.72976e-20)
(30.0141 -0.0941841 3.00703e-20)
(30.0144 -0.0946864 -4.77079e-20)
(30.0147 -0.0952007 2.14347e-20)
(30.015 -0.095727 -2.93972e-20)
(30.0153 -0.0962653 2.33184e-20)
(30.0156 -0.0968156 1.97959e-20)
(30.016 -0.0973776 -1.22391e-20)
(30.0163 -0.0979515 -7.56655e-21)
(30.0167 -0.0985371 7.97389e-20)
(30.0171 -0.0991343 -1.18129e-19)
(30.0174 -0.099743 7.63521e-20)
(30.0178 -0.100363 2.46443e-20)
(30.0182 -0.100994 -1.07956e-19)
(30.0186 -0.101637 3.40331e-20)
(30.019 -0.10229 -3.01472e-20)
(30.0195 -0.102954 1.04816e-19)
(30.0199 -0.103629 -8.56012e-20)
(30.0203 -0.104314 2.14982e-20)
(30.0208 -0.10501 -1.99096e-20)
(30.0212 -0.105715 1.04452e-19)
(30.0217 -0.10643 -4.7045e-20)
(30.0222 -0.107154 4.94888e-20)
(30.0227 -0.107888 -1.16717e-19)
(30.0232 -0.10863 -5.04234e-20)
(30.0237 -0.10938 3.57619e-20)
(30.0242 -0.110139 3.99136e-20)
(30.0248 -0.110905 3.78221e-20)
(30.0253 -0.111678 2.79925e-20)
(30.0259 -0.112458 -1.3098e-19)
(30.0264 -0.113244 7.49675e-20)
(30.027 -0.114036 -4.21635e-20)
(30.0276 -0.114832 4.27122e-20)
(30.0282 -0.115632 4.52242e-20)
(30.0288 -0.116436 -1.1199e-19)
(30.0294 -0.117242 1.38056e-19)
(30.03 -0.118049 -4.22226e-20)
(30.0306 -0.118857 -4.38099e-20)
(30.0313 -0.119664 5.70443e-20)
(30.0319 -0.120469 -6.6903e-20)
(30.0326 -0.12127 -2.83072e-20)
(30.0333 -0.122067 2.76371e-20)
(30.034 -0.122858 5.7799e-20)
(30.0346 -0.123641 -3.14251e-20)
(30.0353 -0.124414 1.69151e-20)
(30.036 -0.125175 -2.4523e-20)
(30.0367 -0.125924 1.61468e-21)
(30.0374 -0.126656 -5.17898e-20)
(30.0381 -0.127371 6.59927e-20)
(30.0388 -0.128065 -2.12804e-20)
(30.0396 -0.128737 6.28173e-20)
(30.0403 -0.129385 -4.5565e-20)
(30.041 -0.130004 -2.82918e-20)
(30.0417 -0.130594 1.13828e-21)
(30.0424 -0.13115 -8.31263e-21)
(30.0431 -0.131672 -1.3926e-20)
(30.0438 -0.132154 6.75091e-21)
(30.0444 -0.132596 -1.10741e-20)
(30.0451 -0.132994 2.29983e-20)
(30.0458 -0.133345 3.84592e-20)
(30.0464 -0.133646 -2.10416e-20)
(30.047 -0.133896 4.2006e-20)
(30.0476 -0.13409 -2.6609e-20)
(30.0482 -0.134228 1.26851e-20)
(30.0488 -0.134305 -2.50561e-20)
(30.0493 -0.134321 -2.15989e-21)
(30.0498 -0.134272 1.99936e-20)
(30.0503 -0.134156 -4.05085e-20)
(30.0508 -0.133973 3.23265e-20)
(30.0512 -0.133719 1.09172e-20)
(30.0516 -0.133394 -3.83476e-20)
(30.052 -0.132996 2.89154e-20)
(30.0523 -0.132525 -1.21027e-20)
(30.0526 -0.131979 -8.68509e-21)
(30.0529 -0.131357 -6.16748e-21)
(30.0531 -0.13066 3.04822e-21)
(30.0533 -0.129888 -5.23804e-21)
(30.0535 -0.129039 1.19548e-20)
(30.0536 -0.128116 -3.26318e-21)
(30.0536 -0.127119 1.07903e-20)
(30.0537 -0.126048 -1.30869e-20)
(30.0536 -0.124905 7.90549e-21)
(30.0536 -0.123691 6.50976e-21)
(30.0535 -0.122409 -9.04826e-21)
(30.0534 -0.121059 3.99738e-21)
(30.0532 -0.119645 -2.18337e-22)
(30.053 -0.118168 3.03075e-22)
(30.0527 -0.116632 -2.33166e-21)
(30.0524 -0.115039 5.6314e-21)
(30.0521 -0.113392 -3.39837e-21)
(30.0517 -0.111694 1.20289e-21)
(30.0513 -0.109949 -9.96248e-23)
(30.0508 -0.10816 -1.43994e-22)
(30.0504 -0.106331 -9.65207e-24)
(30.0499 -0.104465 1.91483e-21)
(30.0493 -0.102567 -1.76231e-21)
(30.0487 -0.100639 -9.83808e-22)
(30.0482 -0.0986872 3.33337e-21)
(30.0475 -0.0967142 5.60335e-22)
(30.0469 -0.0947244 -9.14433e-22)
(30.0462 -0.0927219 -2.56921e-21)
(30.0455 -0.0907107 -1.98749e-22)
(30.0448 -0.0886949 1.89443e-21)
(30.0441 -0.0866787 -3.78814e-23)
(30.0433 -0.0846661 4.62418e-22)
(30.0426 -0.0826611 3.82258e-21)
(30.0418 -0.0806678 -1.2184e-20)
(30.041 -0.0786903 5.77908e-21)
(30.0402 -0.0767324 1.97812e-21)
(30.0394 -0.0747981 -1.03483e-21)
(30.0386 -0.0728914 -3.57045e-21)
(30.0378 -0.0710162 3.75328e-23)
(30.037 -0.0691763 3.26953e-21)
(30.0361 -0.0673756 7.95166e-22)
(30.0353 -0.0656181 -3.34718e-21)
(30.0345 -0.0639074 1.16177e-21)
(30.0337 -0.0622476 -3.80603e-22)
(30.0328 -0.0606423 5.28041e-22)
(30.032 -0.0590954 2.51728e-22)
(30.0312 -0.057611 -6.02261e-22)
(30.0303 -0.0561905 4.23774e-22)
(30.0295 -0.0548482 1.63136e-22)
(30.0287 -0.0535401 -2.93438e-22)
(30.028 -0.052481 5.01513e-23)
(30.0269 -0.0507245 4.80538e-23)
(30.0027 -0.0852717 2.59857e-20)
(30.0029 -0.0853196 -3.58475e-20)
(30.003 -0.0854635 -1.40745e-20)
(30.0032 -0.0852441 3.67891e-20)
(30.0033 -0.0852671 -1.32589e-20)
(30.0034 -0.0853495 1.3419e-20)
(30.0036 -0.0854502 -3.52424e-20)
(30.0037 -0.0855622 1.81963e-20)
(30.0039 -0.0856841 3.17108e-20)
(30.0041 -0.0858151 -5.33779e-20)
(30.0042 -0.0859549 8.82588e-20)
(30.0044 -0.0861036 -8.76261e-20)
(30.0046 -0.0862615 5.19402e-20)
(30.0048 -0.0864289 -3.91519e-20)
(30.005 -0.0866057 4.11126e-22)
(30.0052 -0.0867922 6.10644e-20)
(30.0054 -0.0869885 -1.18197e-19)
(30.0056 -0.0871948 6.33452e-20)
(30.0058 -0.0874111 6.24639e-21)
(30.006 -0.0876377 -1.38485e-21)
(30.0062 -0.0878746 -3.23378e-20)
(30.0065 -0.0881221 -1.67665e-20)
(30.0067 -0.0883801 -3.37155e-20)
(30.0069 -0.0886489 9.79612e-20)
(30.0072 -0.0889285 -7.46725e-21)
(30.0074 -0.0892191 3.75274e-20)
(30.0077 -0.0895208 -5.84694e-20)
(30.0079 -0.0898337 1.76457e-20)
(30.0082 -0.0901578 -3.7321e-20)
(30.0085 -0.0904933 4.3873e-20)
(30.0088 -0.0908403 4.43109e-20)
(30.009 -0.0911988 -6.10877e-20)
(30.0093 -0.0915689 -3.00015e-20)
(30.0096 -0.0919507 4.76639e-20)
(30.01 -0.0923443 -9.53125e-20)
(30.0103 -0.0927497 1.31561e-19)
(30.0106 -0.0931669 -5.20827e-20)
(30.0109 -0.093596 5.00886e-20)
(30.0113 -0.0940371 1.06308e-20)
(30.0116 -0.0944901 -6.12745e-20)
(30.012 -0.0949551 9.38501e-21)
(30.0123 -0.095432 1.34988e-20)
(30.0127 -0.095921 -1.40757e-21)
(30.0131 -0.096422 -7.77497e-20)
(30.0135 -0.0969349 8.3293e-20)
(30.0139 -0.0974597 -1.57395e-20)
(30.0143 -0.0979964 8.30504e-21)
(30.0147 -0.098545 1.74973e-20)
(30.0151 -0.0991053 -4.12179e-20)
(30.0156 -0.0996773 5.60025e-20)
(30.016 -0.100261 -4.14432e-20)
(30.0165 -0.100856 -1.30132e-20)
(30.0169 -0.101463 3.87608e-20)
(30.0174 -0.102081 1.53544e-20)
(30.0179 -0.10271 -3.70521e-20)
(30.0184 -0.10335 -1.99773e-20)
(30.0189 -0.104 -5.7067e-20)
(30.0194 -0.104662 3.89677e-20)
(30.02 -0.105334 -6.4006e-20)
(30.0205 -0.106016 1.11687e-19)
(30.0211 -0.106708 8.74426e-21)
(30.0216 -0.10741 -1.37374e-19)
(30.0222 -0.108122 1.59279e-19)
(30.0228 -0.108843 -1.23994e-19)
(30.0234 -0.109572 1.7317e-20)
(30.024 -0.110311 7.05461e-20)
(30.0246 -0.111057 -7.1066e-20)
(30.0253 -0.111812 8.58063e-20)
(30.0259 -0.112574 -1.40083e-19)
(30.0266 -0.113342 7.45568e-20)
(30.0272 -0.114118 6.27773e-20)
(30.0279 -0.114899 -6.62742e-20)
(30.0286 -0.115686 1.32484e-19)
(30.0293 -0.116477 -3.57893e-20)
(30.03 -0.117273 2.44631e-20)
(30.0308 -0.118071 -1.40636e-19)
(30.0315 -0.118872 2.68359e-20)
(30.0322 -0.119675 -5.20739e-20)
(30.033 -0.120478 1.07943e-19)
(30.0338 -0.12128 -1.19121e-19)
(30.0346 -0.12208 1.12643e-19)
(30.0354 -0.122877 -5.24871e-20)
(30.0362 -0.12367 9.59364e-20)
(30.037 -0.124457 -1.41696e-19)
(30.0378 -0.125236 1.06227e-19)
(30.0386 -0.126006 -5.18132e-21)
(30.0394 -0.126765 -1.21391e-19)
(30.0403 -0.12751 1.7858e-19)
(30.0411 -0.128241 -9.52254e-20)
(30.042 -0.128954 -1.95117e-20)
(30.0428 -0.129648 5.48287e-20)
(30.0437 -0.13032 -2.60311e-20)
(30.0445 -0.130968 -1.7292e-20)
(30.0454 -0.13159 6.68207e-20)
(30.0462 -0.132182 -7.46139e-20)
(30.047 -0.132742 2.4013e-21)
(30.0479 -0.133267 -3.60446e-20)
(30.0487 -0.133755 7.26269e-20)
(30.0495 -0.134203 3.91297e-21)
(30.0503 -0.134607 -1.27612e-20)
(30.0511 -0.134966 -6.23492e-21)
(30.0519 -0.135277 -3.24397e-20)
(30.0527 -0.135536 8.5597e-21)
(30.0534 -0.135742 3.45143e-20)
(30.0541 -0.135891 -6.09976e-20)
(30.0548 -0.135981 4.81645e-20)
(30.0555 -0.13601 1.60643e-20)
(30.0562 -0.135976 -2.6176e-20)
(30.0568 -0.135875 3.44249e-20)
(30.0574 -0.135708 -1.40651e-21)
(30.0579 -0.13547 -2.86629e-20)
(30.0585 -0.135162 1.87412e-20)
(30.0589 -0.134781 1.19198e-20)
(30.0594 -0.134327 -1.75815e-20)
(30.0598 -0.133798 3.63929e-21)
(30.0602 -0.133194 -7.72212e-21)
(30.0605 -0.132515 -4.36825e-21)
(30.0608 -0.131759 -2.02612e-20)
(30.0611 -0.130928 3.88358e-20)
(30.0613 -0.130021 1.10337e-21)
(30.0614 -0.129039 -1.6556e-20)
(30.0616 -0.127983 2.76669e-21)
(30.0616 -0.126854 -1.21977e-20)
(30.0616 -0.125653 1.34968e-20)
(30.0616 -0.124382 9.49751e-21)
(30.0615 -0.123043 -1.00093e-20)
(30.0614 -0.121637 6.20921e-21)
(30.0613 -0.120167 -3.08232e-21)
(30.0611 -0.118636 -6.7239e-21)
(30.0608 -0.117046 -1.12013e-21)
(30.0605 -0.1154 3.29656e-22)
(30.0602 -0.113702 9.86248e-22)
(30.0598 -0.111954 1.3374e-21)
(30.0593 -0.110159 -4.63384e-22)
(30.0589 -0.108323 1.80181e-22)
(30.0584 -0.106447 7.56182e-22)
(30.0578 -0.104536 -9.97588e-22)
(30.0572 -0.102593 -1.88344e-21)
(30.0566 -0.100623 2.55698e-21)
(30.056 -0.0986297 -2.6603e-21)
(30.0553 -0.0966168 3.78178e-21)
(30.0546 -0.0945883 -3.55314e-21)
(30.0539 -0.0925485 2.29766e-21)
(30.0531 -0.0905014 6.0393e-22)
(30.0523 -0.0884511 1.0765e-21)
(30.0515 -0.0864017 -3.1071e-22)
(30.0507 -0.0843571 -5.49343e-22)
(30.0498 -0.0823215 2.70244e-21)
(30.0489 -0.0802989 -4.96165e-21)
(30.0481 -0.0782933 -8.46692e-23)
(30.0472 -0.0763086 -1.85405e-21)
(30.0463 -0.0743488 4.5238e-21)
(30.0453 -0.0724179 -2.295e-21)
(30.0444 -0.0705198 -1.44893e-21)
(30.0435 -0.0686584 5.65283e-21)
(30.0425 -0.0668378 -5.66192e-21)
(30.0416 -0.0650617 9.28304e-23)
(30.0406 -0.0633343 2.51964e-21)
(30.0396 -0.0616594 1.12983e-21)
(30.0387 -0.0600413 8.52272e-22)
(30.0377 -0.0584837 -9.6124e-23)
(30.0367 -0.0569913 -4.20265e-22)
(30.0358 -0.0555658 5.29825e-22)
(30.0348 -0.0542219 3.33407e-22)
(30.0338 -0.0529164 2.09012e-22)
(30.0331 -0.0518633 7.75696e-23)
(30.0317 -0.0501234 6.97787e-23)
(30 -0.0882804 -5.48645e-20)
(30.0001 -0.088333 -3.21794e-20)
(30.0003 -0.0884792 7.32777e-20)
(30.0005 -0.0882723 -3.79561e-20)
(30.0006 -0.0883018 5.19423e-21)
(30.0008 -0.088388 8.5989e-21)
(30.001 -0.0884917 7.95997e-21)
(30.0012 -0.0886064 3.32267e-20)
(30.0014 -0.088731 -8.81375e-20)
(30.0016 -0.0888645 2.40494e-20)
(30.0018 -0.0890067 3.01471e-20)
(30.0021 -0.0891578 6.24507e-21)
(30.0023 -0.0893179 -5.99259e-21)
(30.0025 -0.0894874 5.34821e-20)
(30.0027 -0.0896662 -5.73815e-20)
(30.003 -0.0898546 1.48426e-20)
(30.0032 -0.0900528 2.43121e-20)
(30.0035 -0.0902608 -4.72561e-20)
(30.0037 -0.0904789 -2.94776e-20)
(30.004 -0.0907071 7.68555e-20)
(30.0043 -0.0909456 -8.82004e-20)
(30.0045 -0.0911946 7.99242e-20)
(30.0048 -0.0914542 -1.81124e-20)
(30.0051 -0.0917245 -6.79336e-21)
(30.0054 -0.0920056 -7.38756e-20)
(30.0057 -0.0922977 3.99801e-21)
(30.006 -0.0926009 1.07791e-19)
(30.0063 -0.0929152 -8.69671e-20)
(30.0066 -0.0932409 -1.90323e-21)
(30.007 -0.0935779 3.5868e-20)
(30.0073 -0.0939265 4.47283e-20)
(30.0076 -0.0942866 1.66837e-20)
(30.008 -0.0946583 -3.63023e-20)
(30.0084 -0.0950418 -7.1239e-20)
(30.0087 -0.0954371 6.14971e-20)
(30.0091 -0.0958443 2.47519e-20)
(30.0095 -0.0962634 -3.59608e-20)
(30.0099 -0.0966944 -6.75398e-20)
(30.0103 -0.0971375 4.40858e-20)
(30.0107 -0.0975926 8.21584e-20)
(30.0111 -0.0980597 -3.34859e-20)
(30.0116 -0.0985389 4.7893e-20)
(30.012 -0.0990302 -1.51689e-19)
(30.0125 -0.0995335 4.47542e-20)
(30.0129 -0.100049 3.91006e-20)
(30.0134 -0.100576 -1.75155e-20)
(30.0139 -0.101116 -6.3905e-21)
(30.0144 -0.101667 3.83478e-20)
(30.0149 -0.10223 -1.56888e-20)
(30.0154 -0.102805 -3.40073e-20)
(30.0159 -0.103391 4.25047e-20)
(30.0165 -0.103989 -1.59331e-20)
(30.017 -0.104599 6.05741e-20)
(30.0176 -0.105219 -5.52523e-20)
(30.0182 -0.105851 -4.96224e-23)
(30.0188 -0.106494 5.14877e-20)
(30.0194 -0.107148 2.78279e-20)
(30.02 -0.107812 -5.4804e-20)
(30.0206 -0.108487 -6.4479e-20)
(30.0212 -0.109172 3.63177e-20)
(30.0219 -0.109867 5.38837e-20)
(30.0226 -0.110572 -5.17362e-20)