/*--------------------------------*- C++ -*----------------------------------*\
  =========                 |
  \\      /  F ield         | OpenFOAM: The Open Source CFD Toolbox
   \\    /   O peration     | Website:  https://openfoam.org
    \\  /    A nd           | Version:  13
     \\/     M anipulation  |
\*---------------------------------------------------------------------------*/
FoamFile
{
    format      ascii;
    class       volScalarField;
    location    "0.5";
    object      p;
}
// * * * * * * * * * * * * * * * * * * * * * * * * * * * * * * * * * * * * * //

dimensions      [0 2 -2 0 0 0 0];

internalField   nonuniform List<scalar> 
68864
(
0.371758
0.370303
0.368688
0.366889
0.365078
0.363304
0.361531
0.359736
0.357923
0.3561
0.354266
0.35242
0.350561
0.348688
0.346802
0.344903
0.342989
0.341061
0.339119
0.337162
0.335189
0.333201
0.331196
0.329175
0.327138
0.325083
0.323011
0.320921
0.318812
0.316685
0.314538
0.312371
0.310185
0.307979
0.305752
0.303503
0.301232
0.298939
0.296623
0.294285
0.291923
0.289538
0.287128
0.284692
0.282232
0.279747
0.277237
0.274701
0.272139
0.269549
0.26693
0.264284
0.261612
0.258914
0.256189
0.253437
0.250654
0.247841
0.244998
0.242128
0.239232
0.236311
0.233364
0.230388
0.227382
0.224346
0.221281
0.218191
0.215078
0.211943
0.208786
0.205603
0.202394
0.199158
0.195898
0.192618
0.189322
0.186013
0.182691
0.179351
0.175992
0.172612
0.169216
0.16581
0.162401
0.158993
0.155583
0.152167
0.148742
0.14531
0.141878
0.138453
0.135041
0.131643
0.128255
0.124876
0.121506
0.118149
0.114812
0.1115
0.108216
0.10496
0.101731
0.0985292
0.0953587
0.0922232
0.0891267
0.0860711
0.0830564
0.0800828
0.0771518
0.0742677
0.0714354
0.0686586
0.0659378
0.063271
0.0606552
0.0580899
0.0555782
0.0531257
0.0507382
0.0484186
0.046166
0.0439762
0.0418453
0.0397716
0.0377567
0.0358046
0.0339193
0.0321025
0.0303525
0.0286659
0.0270395
0.0254721
0.0239651
0.0225203
0.0211379
0.0198148
0.0185462
0.0173286
0.0161622
0.0150511
0.013999
0.013006
0.0120659
0.0111689
0.0103072
0.00947956
0.0086916
0.00795114
0.00726159
0.00661814
0.00600966
0.00542504
0.00485925
0.00431536
0.00380127
0.00332234
0.00287616
0.00245381
0.00204583
0.0016484
0.00126591
0.000906772
0.000579239
0.000288205
5.03243e-05
0.636707
0.635005
0.633012
0.630802
0.628592
0.626414
0.624219
0.621984
0.619716
0.617424
0.615105
0.612758
0.610381
0.607973
0.605536
0.603067
0.600567
0.598034
0.595467
0.592867
0.590232
0.587561
0.584854
0.58211
0.579328
0.576507
0.573647
0.570747
0.567805
0.564821
0.561795
0.558724
0.555609
0.552449
0.549243
0.545989
0.542686
0.539335
0.535933
0.532481
0.528978
0.525422
0.521812
0.518147
0.514428
0.510653
0.506823
0.502935
0.498988
0.494982
0.490914
0.486787
0.4826
0.478354
0.474047
0.469677
0.465242
0.46074
0.456175
0.451547
0.446859
0.44211
0.437299
0.432421
0.427477
0.422465
0.41739
0.412254
0.407059
0.401807
0.396496
0.391124
0.385688
0.380191
0.374636
0.369027
0.36337
0.357668
0.351919
0.346121
0.340271
0.334368
0.328421
0.322437
0.316425
0.31039
0.30433
0.298239
0.292115
0.28596
0.279785
0.2736
0.267416
0.261235
0.255055
0.248873
0.242689
0.236508
0.23034
0.224194
0.218078
0.211994
0.205945
0.199932
0.193958
0.188028
0.182147
0.176321
0.170554
0.16485
0.159212
0.153647
0.148161
0.142759
0.137443
0.132216
0.127075
0.122021
0.11706
0.112197
0.107441
0.102798
0.0982697
0.093854
0.0895471
0.0853467
0.0812539
0.0772734
0.0734111
0.0696711
0.0660544
0.0625581
0.0591789
0.0559144
0.0527649
0.0497312
0.0468133
0.0440084
0.0413125
0.0387233
0.036242
0.0338721
0.0316151
0.0294669
0.0274175
0.0254554
0.0235744
0.0217764
0.0200696
0.0184602
0.0169457
0.0155141
0.0141492
0.0128403
0.011587
0.0103967
0.00927574
0.00822256
0.00722697
0.00627485
0.00535566
0.00446761
0.00361481
0.00280706
0.00203948
0.0013482
0.000550581
0.953102
0.950813
0.948145
0.945242
0.942336
0.939445
0.936511
0.933514
0.930463
0.927365
0.924219
0.921021
0.91777
0.914466
0.911108
0.907694
0.904225
0.900698
0.897114
0.89347
0.889766
0.886001
0.882174
0.878282
0.874327
0.870306
0.866218
0.862063
0.857838
0.853542
0.849175
0.844736
0.840223
0.835635
0.830971
0.82623
0.821409
0.816508
0.811526
0.806462
0.801315
0.796083
0.790765
0.78536
0.779866
0.774284
0.768612
0.762848
0.756993
0.751043
0.744998
0.738858
0.732622
0.726291
0.719863
0.713337
0.706711
0.699984
0.693157
0.686232
0.67921
0.672089
0.664868
0.657546
0.650121
0.642596
0.634973
0.627253
0.619438
0.61153
0.603528
0.595431
0.587239
0.578955
0.570581
0.562123
0.553584
0.544968
0.536275
0.527505
0.518656
0.509732
0.500741
0.491693
0.482594
0.473449
0.464256
0.455012
0.445718
0.436381
0.427016
0.417635
0.408247
0.398856
0.389457
0.380049
0.370636
0.361227
0.351838
0.342482
0.333168
0.3239
0.314678
0.305505
0.296385
0.287329
0.278346
0.269446
0.260636
0.251919
0.243302
0.23479
0.226394
0.218123
0.209982
0.201973
0.194097
0.186353
0.178749
0.171295
0.164002
0.156881
0.149933
0.143156
0.136544
0.130095
0.123812
0.117701
0.111772
0.106032
0.100481
0.0951149
0.0899282
0.0849167
0.08008
0.0754203
0.0709397
0.066637
0.0625085
0.0585494
0.0547569
0.0511305
0.0476699
0.0443718
0.0412284
0.0382302
0.0353695
0.0326441
0.0300562
0.0276071
0.025293
0.0231033
0.0210242
0.0190453
0.0171625
0.0153767
0.0136884
0.0120935
0.0105822
0.00914243
0.00776404
0.00644018
0.00516801
0.00394012
0.00276506
0.00157911
0.000580644
1.21793
1.21509
1.21188
1.20847
1.20506
1.20164
1.19816
1.19461
1.191
1.18733
1.18359
1.1798
1.17594
1.17201
1.16801
1.16395
1.15982
1.15561
1.15133
1.14698
1.14255
1.13804
1.13346
1.12879
1.12404
1.11921
1.11429
1.10929
1.10419
1.09901
1.09373
1.08836
1.08289
1.07733
1.07167
1.06591
1.06004
1.05407
1.04799
1.04181
1.03551
1.02911
1.02259
1.01596
1.00921
1.00234
0.995355
0.988248
0.981019
0.973665
0.966183
0.958574
0.950838
0.942974
0.934981
0.926858
0.918601
0.910209
0.901681
0.893019
0.884224
0.875295
0.866233
0.857035
0.8477
0.838228
0.828619
0.818877
0.809003
0.799001
0.788871
0.778612
0.768224
0.757708
0.747065
0.736301
0.725422
0.714432
0.703335
0.69213
0.680819
0.669403
0.657889
0.646287
0.634603
0.622844
0.611012
0.599106
0.587131
0.575098
0.563018
0.550904
0.538763
0.526598
0.514409
0.502199
0.489978
0.47776
0.46556
0.453393
0.441264
0.429178
0.417137
0.405149
0.393224
0.381377
0.36962
0.357961
0.346408
0.334965
0.323641
0.312449
0.301401
0.290509
0.279779
0.269212
0.25881
0.248578
0.238525
0.228667
0.219016
0.209582
0.200366
0.191366
0.182579
0.174006
0.165653
0.157528
0.14964
0.141995
0.134593
0.12743
0.120502
0.113807
0.107344
0.101118
0.0951304
0.0893789
0.0838568
0.0785562
0.0734731
0.0686083
0.0639648
0.0595424
0.0553331
0.0513223
0.0474953
0.0438439
0.0403691
0.0370761
0.0339661
0.0310305
0.0282518
0.0256114
0.0230973
0.0207073
0.0184439
0.0163067
0.0142866
0.0123674
0.0105309
0.00876373
0.00706008
0.00541842
0.00383964
0.00230523
0.000825267
1.49021
1.48721
1.48378
1.48015
1.47652
1.47286
1.46912
1.46529
1.46138
1.45739
1.45331
1.44916
1.44492
1.44059
1.43617
1.43166
1.42706
1.42236
1.41756
1.41267
1.40768
1.40258
1.39738
1.39207
1.38665
1.38113
1.37549
1.36973
1.36386
1.35787
1.35175
1.34551
1.33915
1.33266
1.32604
1.31928
1.31239
1.30536
1.2982
1.29089
1.28344
1.27584
1.26809
1.2602
1.25215
1.24395
1.23559
1.22707
1.2184
1.20956
1.20055
1.19138
1.18205
1.17255
1.16288
1.15304
1.14302
1.13283
1.12246
1.11192
1.10121
1.09032
1.07926
1.06803
1.05661
1.04502
1.03324
1.0213
1.00919
0.996905
0.984457
0.971841
0.959057
0.946103
0.932985
0.919709
0.906284
0.892715
0.879006
0.865158
0.851169
0.837043
0.822786
0.808407
0.79392
0.779331
0.764646
0.74987
0.735006
0.720063
0.705052
0.689985
0.674871
0.659717
0.644532
0.629322
0.614099
0.598878
0.583672
0.568493
0.553349
0.538249
0.523202
0.508222
0.493322
0.478515
0.463814
0.449226
0.434762
0.420433
0.406252
0.392235
0.378394
0.364742
0.351283
0.338023
0.324968
0.312128
0.299516
0.287145
0.275029
0.263175
0.251588
0.24027
0.22922
0.218444
0.207945
0.197732
0.187812
0.178191
0.168871
0.159852
0.15113
0.142705
0.134576
0.126744
0.11921
0.111967
0.105009
0.0983316
0.0919335
0.0858174
0.0799845
0.074429
0.0691363
0.0640879
0.0592697
0.054678
0.0503178
0.0461941
0.0423026
0.0386263
0.0351416
0.0318288
0.0286795
0.0256947
0.0228764
0.0202177
0.0177013
0.0153051
0.0130108
0.0108086
0.00869477
0.00666601
0.00471227
0.00282291
0.000952844
1.74896
1.74549
1.74157
1.73747
1.73337
1.72923
1.72499
1.72065
1.71622
1.7117
1.70709
1.70238
1.69757
1.69266
1.68765
1.68253
1.6773
1.67197
1.66652
1.66096
1.65529
1.64949
1.64357
1.63753
1.63136
1.62506
1.61864
1.61207
1.60537
1.59853
1.59154
1.58442
1.57714
1.56971
1.56213
1.55439
1.5465
1.53844
1.53021
1.52182
1.51326
1.50453
1.49562
1.48653
1.47726
1.46781
1.45817
1.44835
1.43833
1.42812
1.41771
1.4071
1.3963
1.38529
1.37409
1.36268
1.35105
1.33922
1.32717
1.31492
1.30246
1.28979
1.27691
1.26382
1.25051
1.23698
1.22324
1.20929
1.19514
1.18078
1.16622
1.15145
1.13648
1.1213
1.10592
1.09035
1.0746
1.05868
1.04258
1.02631
1.00986
0.993242
0.976462
0.959533
0.94247
0.925284
0.907981
0.890564
0.873036
0.855403
0.837678
0.819875
0.802012
0.7841
0.76615
0.748171
0.730171
0.712162
0.694158
0.676175
0.658227
0.64033
0.622497
0.604741
0.587074
0.569508
0.552058
0.534737
0.51756
0.500543
0.483701
0.467046
0.450594
0.434356
0.418345
0.402568
0.387037
0.371762
0.356754
0.342027
0.327595
0.313471
0.299662
0.286174
0.273009
0.260167
0.247653
0.235473
0.223639
0.21216
0.201042
0.190284
0.179883
0.169836
0.160138
0.150791
0.141793
0.133142
0.124837
0.116873
0.109249
0.101963
0.0950107
0.088381
0.0820594
0.0760311
0.0702866
0.0648239
0.0596445
0.0547456
0.0501159
0.0457354
0.0415832
0.0376441
0.0339111
0.0303809
0.0270466
0.0238945
0.0209055
0.0180618
0.0153495
0.0127574
0.0102738
0.00788168
0.00556812
0.00330872
0.00111827
2.00083
1.99722
1.99312
1.98885
1.98458
1.98025
1.97581
1.97125
1.96659
1.96182
1.95694
1.95196
1.94685
1.94163
1.93628
1.93082
1.92523
1.91951
1.91365
1.90767
1.90154
1.89528
1.88887
1.88232
1.87561
1.86875
1.86174
1.85457
1.84723
1.83973
1.83206
1.82422
1.8162
1.808
1.79963
1.79106
1.78231
1.77336
1.76421
1.75487
1.74532
1.73557
1.72561
1.71544
1.70504
1.69443
1.6836
1.67254
1.66126
1.64974
1.638
1.62601
1.61379
1.60132
1.58862
1.57566
1.56246
1.54901
1.53531
1.52136
1.50715
1.4927
1.47799
1.46303
1.44781
1.43233
1.4166
1.40062
1.38439
1.36792
1.3512
1.33424
1.31702
1.29957
1.28188
1.26396
1.24583
1.22748
1.20892
1.19015
1.17117
1.15198
1.13261
1.11306
1.09335
1.07349
1.05349
1.03334
1.01306
0.99265
0.972125
0.951509
0.930823
0.910082
0.889294
0.868464
0.847601
0.826717
0.805834
0.784973
0.764156
0.7434
0.722716
0.702115
0.681609
0.661215
0.640955
0.620846
0.600907
0.581151
0.561593
0.542247
0.523132
0.504265
0.485663
0.467338
0.449297
0.43155
0.414108
0.396989
0.380211
0.363793
0.347745
0.332072
0.31677
0.30184
0.287286
0.273119
0.259358
0.246014
0.233094
0.220595
0.208507
0.196823
0.185541
0.174664
0.164199
0.154146
0.144502
0.135259
0.126409
0.117943
0.109858
0.102146
0.0947997
0.0878053
0.0811508
0.0748268
0.0688268
0.0631447
0.0577708
0.0526907
0.0478866
0.0433403
0.0390361
0.0349615
0.0311057
0.0274585
0.0240085
0.0207409
0.0176363
0.0146695
0.0118149
0.00904795
0.00636952
0.00373999
0.00128447
2.25259
2.24859
2.24408
2.23942
2.23476
2.23002
2.22515
2.22015
2.21504
2.20981
2.20446
2.19898
2.19337
2.18764
2.18176
2.17575
2.16959
2.1633
2.15685
2.15025
2.1435
2.13659
2.12952
2.12228
2.11487
2.10729
2.09954
2.0916
2.08348
2.07517
2.06668
2.05798
2.04909
2.03999
2.03069
2.02117
2.01144
2.00149
1.99132
1.98092
1.97029
1.95943
1.94832
1.93698
1.92538
1.91353
1.90144
1.88908
1.87647
1.86359
1.85045
1.83703
1.82334
1.80937
1.79513
1.7806
1.76579
1.7507
1.73531
1.71964
1.70368
1.68743
1.67089
1.65405
1.63693
1.61951
1.60179
1.58379
1.56551
1.54693
1.52808
1.50894
1.48952
1.46982
1.44985
1.42963
1.40914
1.38841
1.36744
1.34622
1.32476
1.30307
1.28116
1.25905
1.23677
1.2143
1.19167
1.16887
1.14591
1.12279
1.09956
1.07622
1.05281
1.02933
1.0058
0.982204
0.958567
0.934908
0.911253
0.887632
0.864062
0.840559
0.817132
0.793793
0.770561
0.747461
0.724516
0.701747
0.679169
0.656796
0.634642
0.612728
0.591079
0.569717
0.54866
0.527915
0.50749
0.487392
0.467639
0.448255
0.429264
0.410686
0.392529
0.374792
0.35747
0.340565
0.324086
0.308054
0.292489
0.277403
0.262797
0.248662
0.234983
0.221757
0.208987
0.196685
0.18486
0.173511
0.162624
0.152184
0.142177
0.132601
0.123459
0.114752
0.10647
0.0985913
0.0910938
0.083961
0.077188
0.0707759
0.0647224
0.0590133
0.0536221
0.0485181
0.0436771
0.0390874
0.0347475
0.0306569
0.0268054
0.0231677
0.0197059
0.01638
0.013163
0.0100401
0.00703627
0.00408143
0.00144279
2.49679
2.49258
2.48783
2.48294
2.47804
2.47306
2.46793
2.46266
2.45726
2.45173
2.44607
2.44027
2.43432
2.42822
2.42197
2.41557
2.40901
2.40229
2.3954
2.38834
2.38111
2.3737
2.36611
2.35833
2.35036
2.3422
2.33384
2.32527
2.3165
2.30751
2.29831
2.28889
2.27924
2.26936
2.25925
2.24889
2.2383
2.22745
2.21635
2.20499
2.19337
2.18149
2.16933
2.15689
2.14417
2.13117
2.11788
2.1043
2.09043
2.07625
2.06176
2.04696
2.03186
2.01643
2.0007
1.98464
1.96826
1.95155
1.93451
1.91714
1.89944
1.88141
1.86305
1.84436
1.82533
1.80597
1.78627
1.76624
1.74588
1.7252
1.7042
1.68288
1.66124
1.63928
1.61702
1.59446
1.5716
1.54846
1.52504
1.50135
1.47738
1.45316
1.42869
1.404
1.3791
1.35399
1.32869
1.3032
1.27752
1.25169
1.22572
1.19965
1.17348
1.14724
1.12092
1.09453
1.06811
1.04166
1.01523
0.988836
0.962501
0.936234
0.91005
0.883966
0.85801
0.83221
0.806588
0.781164
0.75595
0.730962
0.706223
0.681759
0.6576
0.633768
0.610275
0.587129
0.564336
0.541911
0.519878
0.498265
0.4771
0.456397
0.43616
0.416385
0.397071
0.378223
0.359862
0.342009
0.324685
0.307896
0.291635
0.275887
0.260645
0.245909
0.231695
0.218017
0.204877
0.192265
0.180157
0.168534
0.157392
0.146739
0.136585
0.126927
0.117743
0.108999
0.100667
0.0927355
0.0852125
0.0781073
0.0714148
0.0651072
0.0591423
0.0534818
0.0481072
0.0430205
0.0382314
0.0337383
0.0295156
0.0255165
0.0216895
0.0179961
0.014427
0.010983
0.00770294
0.00446322
0.00165511
2.74446
2.73991
2.73476
2.7295
2.72424
2.71887
2.71334
2.70765
2.70183
2.69586
2.68974
2.68347
2.67703
2.67043
2.66367
2.65674
2.64963
2.64234
2.63487
2.62721
2.61936
2.61131
2.60306
2.5946
2.58593
2.57705
2.56794
2.55861
2.54905
2.53925
2.52921
2.51893
2.50839
2.4976
2.48654
2.47522
2.46363
2.45176
2.43961
2.42717
2.41444
2.40141
2.38807
2.37443
2.36047
2.3462
2.33161
2.31669
2.30143
2.28584
2.26991
2.25363
2.237
2.22002
2.20269
2.18501
2.16696
2.14854
2.12975
2.11059
2.09107
2.07118
2.05092
2.03029
2.00928
1.9879
1.96614
1.94401
1.92152
1.89867
1.87546
1.8519
1.82798
1.80371
1.7791
1.75415
1.72887
1.70329
1.67739
1.65119
1.62469
1.59791
1.57086
1.54356
1.51603
1.48827
1.46029
1.4321
1.40372
1.37518
1.34649
1.31769
1.28879
1.25979
1.23071
1.20157
1.17239
1.14321
1.11405
1.08493
1.05588
1.0269
0.998021
0.969265
0.940663
0.91224
0.884017
0.856012
0.828241
0.800727
0.773498
0.746587
0.720019
0.693813
0.667981
0.642529
0.61747
0.592827
0.568628
0.544903
0.521674
0.498952
0.476736
0.455027
0.433828
0.413154
0.393028
0.37347
0.354495
0.336099
0.318273
0.301007
0.284301
0.268166
0.252619
0.237667
0.223301
0.209499
0.196238
0.183509
0.171321
0.159687
0.148614
0.13808
0.128051
0.118488
0.109371
0.100708
0.0925126
0.0847898
0.0775169
0.0706481
0.0641351
0.0579493
0.0520894
0.0465694
0.0413951
0.0365456
0.0319726
0.0276171
0.0234333
0.019402
0.0155349
0.0118343
0.00833114
0.00484138
0.0018542
2.98746
2.98262
2.97715
2.97159
2.96602
2.96034
2.95448
2.94844
2.94226
2.93592
2.92941
2.92273
2.91588
2.90885
2.90164
2.89424
2.88664
2.87885
2.87086
2.86266
2.85425
2.84562
2.83677
2.8277
2.81838
2.80883
2.79904
2.789
2.7787
2.76814
2.75731
2.74622
2.73484
2.72318
2.71123
2.69898
2.68643
2.67358
2.66041
2.64692
2.63311
2.61896
2.60448
2.58965
2.57448
2.55896
2.54307
2.52683
2.51021
2.49322
2.47585
2.45809
2.43995
2.42142
2.40249
2.38317
2.36344
2.34331
2.32276
2.30181
2.28045
2.25868
2.2365
2.2139
2.19089
2.16746
2.14362
2.11937
2.09472
2.06967
2.04423
2.01839
1.99216
1.96554
1.93854
1.91117
1.88344
1.85537
1.82697
1.79823
1.76917
1.7398
1.71013
1.68019
1.64999
1.61955
1.58887
1.55797
1.52688
1.49561
1.46419
1.43263
1.40097
1.36921
1.33737
1.30548
1.27357
1.24165
1.20977
1.17793
1.14617
1.1145
1.08295
1.05156
1.02034
0.989323
0.958528
0.927976
0.89769
0.8677
0.838038
0.808732
0.779807
0.751277
0.723156
0.695457
0.668199
0.641409
0.615116
0.589346
0.564116
0.539434
0.515304
0.49173
0.468724
0.446303
0.424489
0.403296
0.382729
0.362784
0.343454
0.324738
0.306647
0.289193
0.272383
0.256214
0.240665
0.225715
0.211353
0.197585
0.184423
0.171877
0.159932
0.148553
0.137702
0.127354
0.117506
0.108173
0.0993629
0.0910606
0.0832242
0.0758032
0.0687616
0.0620906
0.0558004
0.049899
0.0443704
0.0391704
0.0342404
0.0295303
0.0250161
0.020697
0.0165892
0.0126724
0.00896139
0.00522068
0.00203106
3.23466
3.22946
3.22358
3.21762
3.21167
3.20559
3.1993
3.19283
3.18619
3.17938
3.1724
3.16522
3.15786
3.1503
3.14254
3.13457
3.1264
3.118
3.10939
3.10055
3.09148
3.08217
3.07261
3.06281
3.05274
3.04242
3.03183
3.02097
3.00982
2.99839
2.98667
2.97464
2.96231
2.94967
2.9367
2.92342
2.9098
2.89584
2.88154
2.86688
2.85187
2.83649
2.82074
2.80462
2.78811
2.77122
2.75393
2.73623
2.71813
2.69962
2.68069
2.66134
2.64156
2.62136
2.60072
2.57964
2.55812
2.53615
2.51373
2.49086
2.46755
2.44379
2.41957
2.3949
2.36977
2.34419
2.31816
2.29168
2.26477
2.23742
2.20964
2.18142
2.15278
2.12372
2.09424
2.06437
2.03411
2.00348
1.97249
1.94114
1.90944
1.87742
1.84507
1.81243
1.77952
1.74634
1.71293
1.67929
1.64544
1.61142
1.57723
1.54291
1.50847
1.47395
1.43936
1.40473
1.37008
1.33545
1.30085
1.26632
1.23188
1.19756
1.1634
1.12941
1.09563
1.06207
1.02876
0.995729
0.963006
0.930622
0.898607
0.866986
0.835782
0.805011
0.774692
0.744844
0.715491
0.686658
0.658371
0.630652
0.603516
0.576973
0.551033
0.525706
0.501006
0.47695
0.453549
0.430814
0.408745
0.387344
0.366612
0.346559
0.327193
0.308518
0.29053
0.273213
0.256553
0.240537
0.225171
0.210463
0.196418
0.183027
0.170261
0.158084
0.14647
0.135411
0.124914
0.114985
0.105612
0.09676
0.088384
0.0804469
0.0729334
0.0658459
0.0591869
0.0529414
0.0470703
0.0415211
0.0362467
0.0312196
0.0264334
0.0218869
0.0175791
0.0134571
0.00953071
0.00552804
0.00215827
3.48018
3.47462
3.46835
3.46201
3.45569
3.44922
3.44252
3.43562
3.42855
3.42129
3.41384
3.40618
3.39831
3.39023
3.38193
3.37341
3.36466
3.35567
3.34644
3.33697
3.32724
3.31725
3.30699
3.29646
3.28565
3.27455
3.26317
3.25148
3.23948
3.22717
3.21454
3.20158
3.18828
3.17465
3.16066
3.14632
3.13162
3.11654
3.10108
3.08524
3.069
3.05237
3.03533
3.01787
3
2.9817
2.96297
2.94379
2.92417
2.9041
2.88357
2.86258
2.84112
2.8192
2.7968
2.77391
2.75054
2.72668
2.70234
2.6775
2.65218
2.62636
2.60005
2.57325
2.54594
2.51815
2.48986
2.4611
2.43186
2.40214
2.37196
2.34131
2.31019
2.27863
2.24662
2.21418
2.18133
2.14809
2.11445
2.08044
2.04606
2.01133
1.97626
1.94088
1.9052
1.86927
1.83309
1.79668
1.76006
1.72325
1.68627
1.64916
1.61195
1.57467
1.53733
1.49997
1.46259
1.42525
1.38795
1.35075
1.31367
1.27674
1.24
1.20346
1.16715
1.13109
1.09532
1.05987
1.02478
0.99007
0.955767
0.921896
0.888482
0.855547
0.823114
0.791207
0.759847
0.729055
0.698855
0.669267
0.640308
0.611996
0.584344
0.557364
0.531066
0.50546
0.480552
0.45635
0.432862
0.410097
0.388065
0.366771
0.346215
0.326389
0.307282
0.288882
0.271184
0.254191
0.23791
0.222339
0.207469
0.193274
0.179728
0.166807
0.1545
0.142807
0.131725
0.121242
0.111328
0.101946
0.0930652
0.0846675
0.0767474
0.0692983
0.0623003
0.0557164
0.0495016
0.0436165
0.0380365
0.0327493
0.0277464
0.0230063
0.0185038
0.0141631
0.0100129
0.00574785
0.00225939
3.73004
3.72408
3.71734
3.71057
3.70382
3.69689
3.68972
3.68233
3.67475
3.66697
3.65898
3.65076
3.64232
3.63365
3.62474
3.61558
3.60618
3.59652
3.5866
3.5764
3.56593
3.55518
3.54413
3.53279
3.52114
3.50918
3.4969
3.48429
3.47135
3.45806
3.44443
3.43043
3.41607
3.40134
3.38623
3.37073
3.35482
3.33851
3.32179
3.30465
3.28708
3.26907
3.25062
3.23172
3.21236
3.19253
3.17224
3.15146
3.13019
3.10844
3.08618
3.06343
3.04016
3.01639
2.99209
2.96727
2.94193
2.91605
2.88965
2.86271
2.83525
2.80725
2.77871
2.74964
2.72004
2.6899
2.65924
2.62806
2.59637
2.56416
2.53146
2.49825
2.46455
2.43038
2.39573
2.36062
2.32508
2.28912
2.25275
2.21599
2.17884
2.14131
2.10343
2.06524
2.02675
1.988
1.949
1.90977
1.87032
1.83068
1.79088
1.75096
1.71096
1.67091
1.63081
1.5907
1.5506
1.51055
1.47058
1.43073
1.39105
1.35155
1.31226
1.2732
1.23441
1.19591
1.15775
1.11996
1.08257
1.0456
1.00909
0.973042
0.937504
0.9025
0.868053
0.834185
0.800913
0.768256
0.736235
0.704875
0.674199
0.644229
0.614978
0.586453
0.558657
0.531592
0.505268
0.479697
0.454897
0.430882
0.407659
0.385221
0.363556
0.342652
0.322502
0.303107
0.284474
0.266604
0.249493
0.233126
0.21748
0.202534
0.188273
0.174689
0.161774
0.149516
0.137897
0.126887
0.11646
0.106592
0.0972701
0.0884822
0.0802124
0.0724322
0.0651026
0.0581838
0.0516453
0.045469
0.0396435
0.0341511
0.0289623
0.0240316
0.0193227
0.0147577
0.0104001
0.0058978
0.00236348
3.98055
3.97416
3.96696
3.95974
3.95254
3.94514
3.93748
3.92959
3.92149
3.91317
3.90462
3.89583
3.88679
3.8775
3.86796
3.85815
3.84807
3.83771
3.82706
3.81612
3.80488
3.79333
3.78147
3.76928
3.75676
3.7439
3.73069
3.71712
3.70319
3.68889
3.6742
3.65913
3.64366
3.62778
3.61149
3.59477
3.57761
3.56002
3.54197
3.52347
3.5045
3.48506
3.46513
3.44472
3.4238
3.40238
3.38044
3.35798
3.33499
3.31147
3.28741
3.26281
3.23765
3.21194
3.18566
3.15882
3.13141
3.10343
3.07488
3.04575
3.01604
2.98577
2.95491
2.92348
2.89148
2.85891
2.82578
2.79209
2.75785
2.72307
2.68775
2.6519
2.61553
2.57865
2.54128
2.50342
2.46511
2.42637
2.38719
2.3476
2.3076
2.26722
2.22649
2.18543
2.14408
2.10247
2.06061
2.01851
1.97619
1.9337
1.89107
1.84834
1.80554
1.76271
1.71985
1.677
1.63419
1.59145
1.54884
1.50639
1.46413
1.42209
1.38029
1.33877
1.29756
1.25669
1.21621
1.17615
1.13653
1.09738
1.05872
1.02059
0.983021
0.946044
0.90968
0.873944
0.838851
0.804418
0.770671
0.73764
0.705356
0.673838
0.643092
0.613118
0.583912
0.555478
0.527831
0.500996
0.474994
0.449836
0.425514
0.40201
0.379306
0.357399
0.336294
0.316004
0.296532
0.277867
0.259989
0.242873
0.226503
0.210873
0.19598
0.181815
0.168358
0.155578
0.143447
0.13194
0.121046
0.110757
0.101063
0.091939
0.0833463
0.0752406
0.0675838
0.0603528
0.0535378
0.047131
0.041112
0.0354407
0.0300658
0.0249326
0.020015
0.0152463
0.0107223
0.0060237
0.00249016
4.23553
4.22867
4.22094
4.21322
4.20552
4.1976
4.1894
4.18094
4.17226
4.16335
4.15418
4.14475
4.13505
4.12509
4.11484
4.10431
4.09348
4.08235
4.07091
4.05915
4.04706
4.03464
4.02187
4.00876
3.99528
3.98143
3.96721
3.95259
3.93758
3.92217
3.90634
3.89009
3.8734
3.85627
3.83869
3.82065
3.80214
3.78315
3.76367
3.74369
3.72321
3.70221
3.68069
3.65863
3.63603
3.61289
3.58918
3.56492
3.54008
3.51466
3.48866
3.46207
3.43488
3.40709
3.3787
3.3497
3.32008
3.28985
3.259
3.22754
3.19546
3.16276
3.12945
3.09552
3.06099
3.02584
2.9901
2.95376
2.91684
2.87935
2.84129
2.80267
2.7635
2.7238
2.68358
2.64287
2.60168
2.56004
2.51795
2.47543
2.4325
2.38918
2.3455
2.30151
2.25724
2.2127
2.1679
2.12288
2.07766
2.03228
1.98679
1.94123
1.89562
1.84999
1.80436
1.75877
1.71326
1.66786
1.62263
1.57761
1.53281
1.48826
1.444
1.40007
1.3565
1.31334
1.27061
1.22834
1.18657
1.1453
1.10459
1.06447
1.02497
0.986114
0.947928
0.910418
0.873595
0.837484
0.802117
0.76753
0.733751
0.700794
0.668654
0.637324
0.6068
0.577095
0.548236
0.520253
0.493161
0.466955
0.441616
0.41712
0.393459
0.370643
0.348688
0.327603
0.307376
0.28798
0.269387
0.25158
0.23456
0.218332
0.202891
0.188212
0.174255
0.160982
0.148371
0.136418
0.125127
0.114489
0.104476
0.095041
0.0861315
0.0777072
0.0697497
0.0622569
0.0552271
0.0486403
0.0424518
0.0365995
0.0310268
0.0256914
0.0205892
0.0156616
0.0110183
0.00616045
0.00263418
4.49282
4.48547
4.47718
4.46892
4.4607
4.45223
4.44345
4.4344
4.42511
4.41556
4.40574
4.39564
4.38525
4.37456
4.36357
4.35227
4.34065
4.32871
4.31642
4.30379
4.29081
4.27746
4.26374
4.24964
4.23515
4.22026
4.20495
4.18923
4.17307
4.15648
4.13944
4.12194
4.10396
4.08551
4.06657
4.04713
4.02717
4.0067
3.9857
3.96416
3.94207
3.91942
3.89621
3.87242
3.84804
3.82306
3.79749
3.77131
3.74451
3.71709
3.68904
3.66035
3.63101
3.60103
3.57041
3.53912
3.50718
3.47458
3.44132
3.4074
3.37282
3.33758
3.30169
3.26514
3.22795
3.19011
3.15163
3.11253
3.07282
3.0325
2.99159
2.95009
2.90802
2.86539
2.82223
2.77856
2.7344
2.68976
2.64468
2.59915
2.55321
2.50688
2.46021
2.41323
2.36597
2.31844
2.27068
2.2227
2.17455
2.12627
2.0779
2.02949
1.98106
1.93263
1.88424
1.83593
1.78774
1.73973
1.69191
1.64434
1.59704
1.55004
1.50338
1.45711
1.41126
1.36586
1.32096
1.27657
1.23271
1.18943
1.14676
1.10474
1.06341
1.02278
0.982867
0.943675
0.905223
0.867542
0.830669
0.794641
0.759477
0.72518
0.691739
0.659145
0.627404
0.59654
0.566585
0.537563
0.509476
0.482305
0.456023
0.430617
0.406093
0.382472
0.359766
0.337969
0.317051
0.296977
0.277727
0.259305
0.241721
0.224979
0.209055
0.193903
0.179474
0.165743
0.152708
0.14038
0.128762
0.117826
0.107518
0.0977784
0.0885603
0.0798463
0.0716405
0.063948
0.0567527
0.0500078
0.0436459
0.0376009
0.0318321
0.0263211
0.0210805
0.0160413
0.0113101
0.00631095
0.00277338
4.75476
4.74686
4.73797
4.72913
4.72033
4.71127
4.70186
4.69216
4.6822
4.67197
4.66143
4.6506
4.63945
4.62798
4.61618
4.60405
4.59157
4.57873
4.56553
4.55196
4.538
4.52365
4.5089
4.49373
4.47814
4.46211
4.44564
4.42871
4.41132
4.39345
4.37509
4.35624
4.33687
4.31699
4.29657
4.27562
4.25411
4.23204
4.2094
4.18617
4.16235
4.13793
4.11289
4.08723
4.06094
4.03401
4.00643
3.97819
3.94929
3.91972
3.88947
3.85853
3.8269
3.79459
3.76157
3.72786
3.69344
3.65832
3.62249
3.58595
3.54872
3.51079
3.47217
3.43285
3.39285
3.35216
3.31081
3.2688
3.22615
3.18287
3.13897
3.09445
3.04935
3.00367
2.95745
2.9107
2.86345
2.81572
2.76753
2.7189
2.66987
2.62046
2.57071
2.52066
2.47034
2.41977
2.36898
2.31801
2.2669
2.21569
2.16443
2.11315
2.06188
2.01066
1.95952
1.90851
1.85768
1.80706
1.75669
1.70661
1.65686
1.60746
1.55847
1.50992
1.46186
1.41431
1.3673
1.32085
1.27501
1.2298
1.18528
1.14147
1.0984
1.05609
1.01454
0.973768
0.933794
0.894658
0.856396
0.819037
0.782591
0.747048
0.712399
0.678642
0.645795
0.613889
0.582949
0.552987
0.523987
0.495926
0.468785
0.442565
0.417285
0.392959
0.369586
0.34714
0.325584
0.304893
0.285065
0.266116
0.248054
0.230862
0.214494
0.198897
0.184035
0.169902
0.156515
0.143885
0.13199
0.120779
0.110182
0.100146
0.0906502
0.0817008
0.0733093
0.0654654
0.058125
0.0512172
0.0446702
0.0384349
0.032498
0.0268581
0.0215267
0.0164056
0.0115924
0.00644984
0.0028864
5.02016
5.01168
5.00214
4.99269
4.98328
4.97357
4.9635
4.95311
4.94244
4.93147
4.92018
4.90856
4.8966
4.8843
4.87164
4.85862
4.84522
4.83144
4.81727
4.80269
4.78769
4.77227
4.75641
4.7401
4.72334
4.7061
4.68838
4.67017
4.65146
4.63223
4.61247
4.59217
4.57132
4.54991
4.52793
4.50536
4.48219
4.45842
4.43402
4.409
4.38334
4.35703
4.33005
4.3024
4.27407
4.24506
4.21534
4.18492
4.15379
4.12193
4.08934
4.05602
4.02197
3.98717
3.95163
3.91535
3.87831
3.84052
3.80197
3.76269
3.72266
3.6819
3.6404
3.59817
3.55521
3.51155
3.46718
3.42214
3.37642
3.33004
3.28301
3.23536
3.18711
3.13827
3.08888
3.03895
2.98851
2.93758
2.8862
2.83439
2.78219
2.72963
2.67674
2.62356
2.57012
2.51647
2.46262
2.40864
2.35455
2.3004
2.24622
2.19206
2.13796
2.08396
2.03011
1.97643
1.92298
1.8698
1.81692
1.76438
1.71223
1.66051
1.60926
1.55852
1.50832
1.45868
1.40965
1.36124
1.31351
1.26648
1.22021
1.17471
1.13001
1.08611
1.04303
1.00078
0.959403
0.918929
0.879392
0.840806
0.80317
0.766477
0.730721
0.695913
0.662078
0.629241
0.597415
0.566595
0.536759
0.507891
0.479988
0.45306
0.427123
0.402176
0.378199
0.355158
0.333025
0.311795
0.291479
0.272088
0.253611
0.236008
0.219225
0.203221
0.187982
0.173522
0.159856
0.146973
0.134824
0.123341
0.112464
0.102165
0.0924474
0.0833253
0.0747957
0.06682
0.059329
0.0522465
0.0455173
0.0391201
0.0330624
0.0273415
0.0219479
0.0167474
0.011841
0.00654551
0.00296766
5.29041
5.28131
5.27108
5.26096
5.25089
5.2405
5.2297
5.21857
5.20713
5.19537
5.18326
5.1708
5.15797
5.14477
5.13118
5.1172
5.10282
5.08802
5.07279
5.05712
5.04101
5.02443
5.00738
4.98985
4.97181
4.95327
4.93421
4.91462
4.89448
4.87379
4.85252
4.83067
4.80822
4.78517
4.7615
4.7372
4.71225
4.68665
4.66037
4.63342
4.60578
4.57744
4.54838
4.5186
4.48809
4.45685
4.42485
4.39209
4.35857
4.32427
4.28919
4.25333
4.21668
4.17925
4.14102
4.10199
4.06217
4.02154
3.98013
3.93793
3.89494
3.85118
3.80664
3.76133
3.71528
3.66848
3.62095
3.57271
3.52377
3.47415
3.42387
3.37295
3.32142
3.26929
3.2166
3.16337
3.10963
3.05541
3.00075
2.94567
2.89022
2.83443
2.77832
2.72195
2.66535
2.60856
2.55164
2.49461
2.43751
2.38039
2.3233
2.26626
2.20935
2.1526
2.09605
2.03974
1.98371
1.92799
1.87265
1.81771
1.76324
1.70927
1.65583
1.60297
1.55071
1.49907
1.4481
1.39784
1.34832
1.29958
1.25165
1.20456
1.15832
1.11293
1.06843
1.02482
0.982161
0.940463
0.899752
0.860034
0.821304
0.783561
0.746811
0.71107
0.676358
0.642688
0.610059
0.578457
0.54787
0.518292
0.489731
0.462194
0.435682
0.410176
0.38565
0.362076
0.339447
0.317767
0.297046
0.277275
0.258422
0.240437
0.223277
0.206924
0.191383
0.176669
0.162773
0.149658
0.137259
0.125515
0.114392
0.103885
0.0940071
0.0847598
0.0761114
0.0679984
0.0603452
0.053091
0.0462077
0.0396957
0.0335646
0.0277908
0.0223378
0.0170429
0.0120317
0.00658219
0.00303007
5.5649
5.55514
5.54416
5.53333
5.52256
5.51143
5.49987
5.48794
5.47569
5.46309
5.45011
5.43674
5.42299
5.40882
5.39425
5.37925
5.36381
5.34792
5.33157
5.31474
5.29743
5.27962
5.2613
5.24246
5.22307
5.20314
5.18265
5.16158
5.13992
5.11766
5.09478
5.07127
5.04712
5.02232
4.99684
4.97069
4.94384
4.91628
4.88801
4.859
4.82924
4.79873
4.76746
4.73541
4.70258
4.66896
4.63452
4.59928
4.56321
4.52632
4.4886
4.45004
4.41064
4.37041
4.32933
4.2874
4.24463
4.20102
4.15657
4.11128
4.06518
4.01826
3.97052
3.92199
3.87268
3.82259
3.77175
3.72017
3.66787
3.61487
3.56121
3.5069
3.45197
3.39644
3.34033
3.28369
3.22655
3.16895
3.11093
3.05251
2.99374
2.93464
2.87526
2.81564
2.75584
2.69591
2.63588
2.57578
2.51567
2.45558
2.39556
2.33568
2.27598