/*--------------------------------*- C++ -*----------------------------------*\
  =========                 |
  \\      /  F ield         | OpenFOAM: The Open Source CFD Toolbox
   \\    /   O peration     | Website:  https://openfoam.org
    \\  /    A nd           | Version:  13
     \\/     M anipulation  |
\*---------------------------------------------------------------------------*/
FoamFile
{
    format      ascii;
    class       surfaceScalarField;
    location    "0.5";
    object      phi;
}
// * * * * * * * * * * * * * * * * * * * * * * * * * * * * * * * * * * * * * //

dimensions      [0 3 -1 0 0 0 0];

internalField   nonuniform List<scalar> 
137229
(
14.3657
-0.000429554
-14.3685
14.3628
-0.000438894
14.3599
-0.000448574
14.357
-0.000458473
14.354
-0.00046866
14.3509
-0.000479165
14.3477
-0.000489929
14.3445
-0.000501045
14.3413
-0.000512459
14.3379
-0.000524212
14.3345
-0.000536279
14.3311
-0.000548758
14.3276
-0.000561533
14.324
-0.000574702
14.3203
-0.000588276
14.3166
-0.000602176
14.3128
-0.000616533
14.3089
-0.000631299
14.3049
-0.000646457
14.3009
-0.000662085
14.2967
-0.000678142
14.2925
-0.000694674
14.2883
-0.000711694
14.2839
-0.000729184
14.2794
-0.00074716
14.2749
-0.000765644
14.2703
-0.000784669
14.2655
-0.000804236
14.2607
-0.00082437
14.2558
-0.000845084
14.2508
-0.00086633
14.2457
-0.000888216
14.2405
-0.000910655
14.2351
-0.000933694
14.2297
-0.000957469
14.2242
-0.000981835
14.2185
-0.00100693
14.2128
-0.00103271
14.2069
-0.0010591
14.2009
-0.00108624
14.1948
-0.00111406
14.1886
-0.00114268
14.1822
-0.00117211
14.1758
-0.00120225
14.1692
-0.00123323
14.1624
-0.00126489
14.1555
-0.00129735
14.1485
-0.00133066
14.1414
-0.00136491
14.1341
-0.00140003
14.1266
-0.00143607
14.119
-0.00147291
14.1113
-0.00151055
14.1033
-0.00154897
14.0953
-0.00158834
14.087
-0.00162875
14.0786
-0.00167024
14.0701
-0.00171277
14.0613
-0.00175615
14.0524
-0.00180031
14.0433
-0.0018453
14.034
-0.00189112
14.0246
-0.00193809
14.0149
-0.00198613
14.005
-0.00203533
13.995
-0.00208559
13.9847
-0.00213669
13.9742
-0.00218858
13.9635
-0.00224124
13.9526
-0.00229473
13.9415
-0.00234922
13.9301
-0.00240479
13.9186
-0.00246152
13.9067
-0.00251935
13.8947
-0.00257798
13.8823
-0.0026372
13.8698
-0.00269691
13.8569
-0.00275709
13.8439
-0.0028181
13.8305
-0.00288021
13.8169
-0.00294349
13.803
-0.00300772
13.7888
-0.00307244
13.7743
-0.0031372
13.7595
-0.00320189
13.7444
-0.00326671
13.729
-0.00333215
13.7133
-0.00339848
13.6972
-0.0034657
13.6809
-0.00353321
13.6641
-0.0036005
13.6471
-0.00366717
13.6297
-0.00373318
13.6119
-0.003799
13.5938
-0.00386491
13.5752
-0.00393105
13.5563
-0.00399711
13.5371
-0.00406257
13.5174
-0.00412687
13.4973
-0.00418986
13.4767
-0.00425159
13.4558
-0.00431227
13.4344
-0.00437199
13.4126
-0.00443064
13.3903
-0.00448779
13.3676
-0.00454312
13.3443
-0.00459628
13.3206
-0.00464729
13.2964
-0.00469618
13.2717
-0.00474283
13.2465
-0.00478705
13.2207
-0.00482834
13.1944
-0.00486621
13.1676
-0.00490047
13.1402
-0.00493112
13.1122
-0.00495845
13.0836
-0.00498244
13.0544
-0.00500289
13.0246
-0.00501918
12.9942
-0.00503046
12.9631
-0.00503609
12.9314
-0.00503589
12.899
-0.00503002
12.8659
-0.00501891
12.8321
-0.00500273
12.7976
-0.00498121
12.7624
-0.00495355
12.7264
-0.00491877
12.6897
-0.00487613
12.6522
-0.00482534
12.6138
-0.00476667
12.5747
-0.00470038
12.5347
-0.0046265
12.4939
-0.00454458
12.4522
-0.00445355
12.4096
-0.00435266
12.366
-0.00424162
12.3216
-0.00412083
12.2762
-0.00399053
12.2298
-0.00385051
12.1824
-0.0036996
12.134
-0.00353622
12.0846
-0.00335927
12.0341
-0.00316898
11.9825
-0.00296666
11.9298
-0.00275356
11.8759
-0.00252958
11.8209
-0.00229287
11.7647
-0.00204056
11.7073
-0.00177044
11.6486
-0.00148234
11.5886
-0.00117806
11.5274
-0.000859936
11.4648
-0.000528797
11.4008
-0.000183068
11.3355
0.000180536
11.2687
0.000565021
11.2004
0.000971782
11.1307
0.00139972
11.0594
0.00184709
10.9866
0.00231243
10.9122
0.0027961
10.8361
0.00329991
10.7584
0.00382648
10.679
0.00437817
10.5978
0.00495864
0.00556863
13.6793
0.00212876
-13.6819
13.6767
0.00216973
13.674
0.00221146
13.6713
0.002254
13.6686
0.00229733
13.6657
0.00234148
13.6629
0.00238644
13.6599
0.00243226
13.6569
0.00247894
13.6539
0.00252646
13.6508
0.00257489
13.6476
0.00262423
13.6444
0.0026745
13.6411
0.00272566
13.6377
0.0027778
13.6343
0.00283093
13.6308
0.00288505
13.6272
0.00294016
13.6236
0.00299632
13.6198
0.00305354
13.6161
0.0031118
13.6122
0.00317114
13.6082
0.0032316
13.6042
0.00329316
13.6001
0.00335596
13.5959
0.00341985
13.5917
0.00348502
13.5873
0.00355135
13.5829
0.00361891
13.5783
0.00368774
13.5737
0.0037579
13.569
0.00382938
13.5642
0.00390222
13.5593
0.00397646
13.5543
0.00405206
13.5491
0.00412907
13.5439
0.00420759
13.5386
0.00428756
13.5332
0.00436909
13.5276
0.00445224
13.522
0.00453693
13.5162
0.00462326
13.5103
0.00471124
13.5043
0.00480091
13.4982
0.00489234
13.492
0.00498562
13.4856
0.00508075
13.4791
0.00517772
13.4724
0.00527657
13.4657
0.00537731
13.4587
0.00548004
13.4517
0.00558489
13.4445
0.00569198
13.4371
0.00580128
13.4296
0.00591283
13.422
0.00602652
13.4142
0.00614241
13.4062
0.00626069
13.3981
0.00638145
13.3897
0.00650492
13.3813
0.00663119
13.3726
0.00676017
13.3638
0.00689182
13.3548
0.00702612
13.3456
0.00716322
13.3362
0.00730328
13.3266
0.0074465
13.3168
0.00759312
13.3068
0.00774321
13.2967
0.00789674
13.2862
0.0080537
13.2756
0.00821413
13.2648
0.00837802
13.2537
0.00854563
13.2424
0.00871724
13.2309
0.00889321
13.2191
0.0090737
13.2071
0.0092588
13.1948
0.00944836
13.1823
0.0096422
13.1695
0.00984044
13.1565
0.0100434
13.1432
0.0102516
13.1296
0.0104657
13.1157
0.0106859
13.1015
0.010912
13.087
0.0111437
13.0722
0.0113809
13.0572
0.0116238
13.0417
0.0118732
13.026
0.0121297
13.01
0.0123939
12.9936
0.012666
12.9768
0.0129455
12.9597
0.0132324
12.9423
0.0135267
12.9244
0.0138287
12.9062
0.0141395
12.8876
0.0144596
12.8687
0.0147895
12.8493
0.0151293
12.8295
0.015479
12.8093
0.0158385
12.7886
0.0162082
12.7676
0.0165887
12.746
0.0169806
12.7241
0.0173844
12.7016
0.0178005
12.6787
0.018229
12.6553
0.0186703
12.6314
0.0191248
12.6069
0.0195932
12.582
0.0200761
12.5565
0.0205742
12.5305
0.0210876
12.5039
0.0216164
12.4768
0.0221609
12.4491
0.0227214
12.4207
0.0232991
12.3918
0.0238949
12.3623
0.0245098
12.3321
0.0251444
12.3013
0.0257988
12.2698
0.0264731
12.2376
0.0271672
12.2047
0.0278817
12.1712
0.0286177
12.1369
0.0293767
12.1018
0.0301598
12.066
0.0309676
12.0295
0.0318005
11.9921
0.0326585
11.9539
0.0335419
11.915
0.0344515
11.8751
0.0353888
11.8344
0.0363548
11.7928
0.0373504
11.7503
0.0383761
11.7069
0.0394319
11.6625
0.0405186
11.6172
0.0416376
11.5709
0.0427907
11.5235
0.0439796
11.4751
0.0452045
11.4257
0.0464653
11.3752
0.0477613
11.3236
0.0490933
11.2708
0.0504634
11.2169
0.0518747
11.1618
0.0533296
11.1055
0.0548292
11.0479
0.0563726
10.9891
0.0579586
10.929
0.0595873
10.8676
0.0612607
10.8048
0.0629824
10.7406
0.0647556
10.675
0.0665824
10.6079
0.0684628
10.5393
0.0703962
10.4693
0.0723823
10.3977
0.0744221
10.3244
0.076518
10.2496
0.0786731
10.1731
0.0808904
10.0949
0.0831761
0.085529
13.0211
0.00446475
-13.0234
13.0187
0.0045524
13.0163
0.00464178
13.0138
0.00473295
13.0113
0.00482594
13.0087
0.00492077
13.006
0.00501749
13.0034
0.0051162
13.0006
0.00521681
12.9978
0.00531945
12.995
0.00542414
12.9921
0.00553093
12.9891
0.00563982
12.9861
0.00575094
12.983
0.00586423
12.9799
0.0059798
12.9766
0.00609773
12.9734
0.00621797
12.97
0.00634062
12.9666
0.00646577
12.9631
0.00659336
12.9596
0.00672357
12.9559
0.00685632
12.9522
0.0069918
12.9485
0.00713
12.9446
0.007271
12.9407
0.00741478
12.9367
0.00756151
12.9326
0.00771114
12.9284
0.00786379
12.9242
0.00801952
12.9198
0.00817846
12.9154
0.00834061
12.9108
0.00850604
12.9062
0.00867481
12.9015
0.00884696
12.8967
0.00902266
12.8918
0.00920187
12.8867
0.00938481
12.8816
0.0095715
12.8764
0.00976198
12.8711
0.00995638
12.8656
0.0101547
12.8601
0.0103571
12.8544
0.0105637
12.8486
0.0107745
12.8427
0.0109899
12.8367
0.0112096
12.8305
0.0114338
12.8242
0.0116627
12.8178
0.0118962
12.8113
0.0121347
12.8046
0.0123783
12.7978
0.0126271
12.7908
0.0128811
12.7837
0.0131404
12.7764
0.0134051
12.769
0.0136753
12.7614
0.0139513
12.7537
0.0142333
12.7458
0.0145215
12.7377
0.014816
12.7295
0.0151167
12.7211
0.0154238
12.7125
0.0157375
12.7038
0.016058
12.6949
0.0163855
12.6857
0.0167203
12.6764
0.0170627
12.6669
0.0174127
12.6572
0.0177705
12.6473
0.0181362
12.6371
0.0185098
12.6268
0.0188917
12.6162
0.0192822
12.6054
0.0196818
12.5944
0.0200908
12.5832
0.0205094
12.5717
0.0209375
12.5599
0.0213752
12.548
0.0218228
12.5357
0.0222805
12.5232
0.0227491
12.5105
0.0232292
12.4974
0.0237211
12.4841
0.0242247
12.4705
0.0247402
12.4566
0.0252673
12.4424
0.0258067
12.428
0.0263592
12.4132
0.0269256
12.398
0.0275065
12.3826
0.0281019
12.3668
0.0287119
12.3507
0.0293364
12.3343
0.0299757
12.3175
0.0306307
12.3003
0.0313023
12.2828
0.0319913
12.2649
0.0326983
12.2466
0.0334234
12.2279
0.0341667
12.2088
0.0349286
12.1893
0.0357096
12.1694
0.0365106
12.149
0.0373324
12.1282
0.0381758
12.107
0.0390412
12.0853
0.0399289
12.0631
0.0408395
12.0405
0.0417739
12.0173
0.0427329
11.9937
0.0437176
11.9696
0.0447285
11.9449
0.0457662
11.9197
0.046831
11.8939
0.0479232
11.8676
0.0490439
11.8407
0.0501944
11.8132
0.051376
11.7851
0.05259
11.7564
0.0538371
11.7271
0.0551176
11.6971
0.0564319
11.6665
0.0577804
11.6353
0.0591642
11.6033
0.0605848
11.5706
0.0620439
11.5372
0.0635429
11.5031
0.0650829
11.4683
0.0666643
11.4326
0.0682877
11.3962
0.0699539
11.359
0.0716641
11.321
0.0734202
11.2821
0.0752238
11.2424
0.0770762
11.2018
0.0789781
11.1603
0.0809301
11.1179
0.0829334
11.0745
0.0849897
11.0302
0.0871015
10.9849
0.0892708
10.9386
0.091499
10.8913
0.0937861
10.8429
0.0961322
10.7935
0.0985384
10.7429
0.101007
10.6913
0.103542
10.6384
0.106146
10.5845
0.108821
10.5293
0.111568
10.4728
0.114385
10.4151
0.117273
10.3562
0.120235
10.2959
0.123275
10.2342
0.126396
10.1712
0.129602
10.1068
0.132894
10.0409
0.136272
9.97356
0.139736
9.9047
0.143287
9.83428
0.14693
9.76229
0.150667
9.68867
0.154505
9.6134
0.158449
0.1625
12.3967
0.00660095
-12.3989
12.3945
0.006732
12.3923
0.00686566
12.3901
0.00700211
12.3877
0.00714131
12.3854
0.00728336
12.383
0.0074283
12.3805
0.0075762
12.378
0.00772712
12.3754
0.00788115
12.3728
0.00803828
12.3701
0.00819866
12.3674
0.00836229
12.3646
0.00852929
12.3618
0.00869967
12.3589
0.00887361
12.356
0.00905107
12.353
0.0092322
12.3499
0.00941699
12.3467
0.00960561
12.3435
0.00979813
12.3403
0.00999452
12.3369
0.010195
12.3335
0.0103996
12.33
0.0106085
12.3265
0.0108216
12.3229
0.0110391
12.3192
0.0112611
12.3154
0.0114877
12.3115
0.0117189
12.3076
0.011955
12.3036
0.0121959
12.2995
0.0124419
12.2953
0.012693
12.291
0.0129492
12.2866
0.0132107
12.2822
0.0134777
12.2776
0.0137503
12.273
0.0140285
12.2683
0.0143126
12.2634
0.0146026
12.2585
0.0148987
12.2534
0.0152009
12.2483
0.0155095
12.243
0.0158245
12.2376
0.0161462
12.2322
0.0164748
12.2266
0.0168102
12.2208
0.0171527
12.215
0.0175023
12.209
0.0178594
12.203
0.018224
12.1967
0.0185966
12.1904
0.0189771
12.1839
0.0193658
12.1773
0.0197628
12.1705
0.020168
12.1636
0.0205819
12.1566
0.0210048
12.1493
0.0214368
12.142
0.0218784
12.1345
0.0223297
12.1268
0.0227906
12.119
0.0232615
12.111
0.0237425
12.1028
0.024234
12.0944
0.0247362
12.0859
0.0252497
12.0772
0.0257747
12.0683
0.0263114
12.0592
0.02686
12.0499
0.0274207
12.0404
0.0279936
12.0307
0.0285791
12.0209
0.0291778
12.0107
0.0297902
12.0004
0.0304167
11.9899
0.0310577
11.9791
0.0317132
11.9681
0.0323834
11.9568
0.0330685
11.9454
0.0337691
11.9336
0.0344859
11.9216
0.0352196
11.9094
0.0359707
11.8969
0.0367395
11.8841
0.0375259
11.871
0.0383304
11.8577
0.0391533
11.844
0.0399956
11.8301
0.0408582
11.8159
0.0417417
11.8013
0.0426465
11.7865
0.0435727
11.7713
0.0445206
11.7558
0.0454908
11.7399
0.0464841
11.7237
0.0475018
11.7072
0.0485445
11.6902
0.0496129
11.673
0.0507074
11.6553
0.0518284
11.6372
0.0529765
11.6188
0.0541526
11.6
0.0553577
11.5807
0.0565928
11.561
0.0578587
11.5409
0.0591559
11.5203
0.060485
11.4993
0.0618471
11.4779
0.0632432
11.4559
0.0646746
11.4335
0.0661423
11.4106
0.0676471
11.3872
0.0691897
11.3632
0.0707706
11.3387
0.0723907
11.3137
0.0740514
11.2882
0.0757543
11.2621
0.0775009
11.2354
0.0792926
11.2081
0.0811303
11.1802
0.0830148
11.1516
0.0849468
11.1225
0.0869271
11.0927
0.0889572
11.0623
0.0910389
11.0311
0.0931742
10.9993
0.0953647
10.9668
0.0976118
10.9335
0.0999166
10.8995
0.10228
10.8648
0.104703
10.8293
0.107187
10.7929
0.109735
10.7558
0.112349
10.7179
0.11503
10.6791
0.117779
10.6394
0.120598
10.5988
0.123488
10.5574
0.126452
10.515
0.129492
10.4716
0.132611
10.4273
0.135811
10.382
0.139092
10.3357
0.142454
10.2883
0.1459
10.2399
0.149433
10.1904
0.153057
10.1398
0.156775
10.088
0.160591
10.0351
0.164503
9.98094
0.168513
9.92559
0.172622
9.86899
0.176833
9.81112
0.181151
9.75193
0.185581
9.69141
0.190126
9.62951
0.194787
9.56622
0.199566
9.50149
0.204463
9.4353
0.209482
9.3676
0.214627
9.29837
0.219902
9.22756
0.225314
9.15514
0.230868
0.236564
11.8011
0.00855809
-11.803
11.7991
0.00872937
11.7971
0.00890424
11.795
0.00908269
11.7928
0.00926486
11.7907
0.00945075
11.7885
0.00964052
11.7862
0.00983424
11.7839
0.0100319
11.7816
0.0102337
11.7792
0.0104397
11.7767
0.01065
11.7742
0.0108646
11.7716
0.0110837
11.769
0.0113073
11.7664
0.0115356
11.7637
0.0117686
11.7609
0.0120065
11.7581
0.0122493
11.7552
0.0124972
11.7522
0.0127503
11.7492
0.0130086
11.7461
0.0132723
11.743
0.0135416
11.7398
0.0138164
11.7365
0.014097
11.7331
0.0143835
11.7297
0.014676
11.7262
0.0149746
11.7227
0.0152795
11.719
0.0155907
11.7153
0.0159085
11.7115
0.016233
11.7077
0.0165644
11.7037
0.0169027
11.6997
0.0172481
11.6956
0.0176008
11.6913
0.0179609
11.687
0.0183287
11.6827
0.0187042
11.6782
0.0190878
11.6736
0.0194794
11.6689
0.0198793
11.6641
0.0202878
11.6593
0.0207049
11.6543
0.021131
11.6492
0.0215661
11.644
0.0220106
11.6387
0.0224644
11.6332
0.0229279
11.6277
0.0234014
11.622
0.0238851
11.6163
0.0243793
11.6103
0.0248843
11.6043
0.0254001
11.5981
0.0259269
11.5919
0.0264649
11.5854
0.0270146
11.5788
0.0275763
11.5721
0.0281503
11.5653
0.028737
11.5583
0.0293366
11.5511
0.0299492
11.5438
0.0305751
11.5363
0.0312145
11.5287
0.031868
11.5209
0.0325359
11.5129
0.0332188
11.5048
0.033917
11.4965
0.0346308
11.488
0.0353605
11.4793
0.0361062
11.4704
0.0368683
11.4613
0.0376473
11.4521
0.0384439
11.4426
0.0392586
11.4329
0.040092
11.423
0.0409446
11.4129
0.0418166
11.4026
0.042708
11.3921
0.0436193
11.3813
0.044551
11.3703
0.0455042
11.359
0.0464797
11.3475
0.0474781
11.3357
0.0484999
11.3237
0.0495452
11.3114
0.0506143
11.2989
0.0517079
11.286
0.0528268
11.2729
0.0539722
11.2595
0.0551448
11.2458
0.0563453
11.2318
0.0575741
11.2175
0.0588316
11.2029
0.0601187
11.1879
0.061436
11.1726
0.0627848
11.157
0.0641661
11.1411
0.0655806
11.1247
0.0670291
11.1081
0.0685124
11.091
0.0700312
11.0736
0.0715866
11.0557
0.0731795
11.0375
0.0748111
11.0189
0.0764824
10.9999
0.0781942
10.9804
0.0799476
10.9605
0.0817437
10.9402
0.0835839
10.9194
0.0854693
10.8981
0.0874014
10.8764
0.0893811
10.8542
0.0914094
10.8314
0.0934873
10.8082
0.0956159
10.7845
0.0977967
10.7602
0.100032
10.7354
0.102322
10.71
0.10467
10.684
0.107077
10.6575
0.109544
10.6304
0.112072
10.6027
0.114662
10.5743
0.117315
10.5453
0.120035
10.5157
0.122822
10.4853
0.12568
10.4543
0.12861
10.4226
0.131613
10.3902
0.134691
10.3571
0.137845
10.3232
0.141077
10.2885
0.14439
10.2531
0.147786
10.2169
0.151268
10.1798
0.154836
10.1419
0.158493
10.1032
0.16224
10.0635
0.166082
10.023
0.17002
9.98156
0.174058
9.93918
0.178197
9.89583
0.182439
9.8515
0.186785
9.80616
0.191237
9.75979
0.195801
9.71237
0.200479
9.66387
0.205277
9.61426
0.210196
9.56353
0.215237
9.51164
0.220402
9.45857
0.225694
9.40429
0.231115
9.34877
0.236673
9.29198
0.242371
9.23389
0.248212
9.17448
0.2542
9.11371
0.260337
9.05154
0.266624
8.98796
0.273067
8.92292
0.279669
8.85638
0.286436
8.78832
0.293373
8.7187
0.300488
0.307782
11.2346
0.0103497
-11.2364
11.2327
0.0105585
11.2309
0.0107717
11.229
0.0109893
11.227
0.0112114
11.225
0.0114382
11.223
0.0116698
11.2209
0.0119062
11.2188
0.0121476
11.2166
0.0123939
11.2144
0.0126455
11.2122
0.0129024
11.2099
0.0131646
11.2075
0.0134323
11.2051
0.0137057
11.2027
0.0139848
11.2002
0.0142698
11.1976
0.0145608
11.195
0.0148578
11.1924
0.0151612
11.1896
0.0154709
11.1869
0.0157872
11.184
0.0161102
11.1811
0.0164399
11.1782
0.0167767
11.1751
0.0171206
11.1721
0.0174717
11.1689
0.0178303
11.1657
0.0181964
11.1624
0.0185703
11.159
0.0189522
11.1556
0.0193421
11.1521
0.0197404
11.1485
0.0201472
11.1448
0.0205626
11.1411
0.0209869
11.1373
0.0214201
11.1334
0.0218626
11.1294
0.0223145
11.1253
0.0227762
11.1212
0.0232478
11.1169
0.0237294
11.1126
0.0242214
11.1081
0.0247238
11.1036
0.0252371
11.099
0.0257615
11.0942
0.0262971
11.0894
0.0268443
11.0845
0.0274033
11.0794
0.0279743
11.0743
0.0285577
11.069
0.0291538
11.0636
0.0297628
11.0581
0.0303852
11.0525
0.0310211
11.0468
0.0316706
11.0409
0.0323343
11.0349
0.0330124
11.0288
0.0337054
11.0225
0.0344138
11.0161
0.0351379
11.0096
0.0358779
11.0029
0.036634
10.996
0.0374067
10.9891
0.0381964
10.9819
0.0390034
10.9746
0.0398286
10.9672
0.0406722
10.9596
0.0415348
10.9518
0.0424166
10.9438
0.043318
10.9357
0.0442395
10.9274
0.0451813
10.9189
0.0461442
10.9102
0.0471289
10.9013
0.0481361
10.8922
0.0491664
10.883
0.0502204
10.8735
0.0512982
10.8638
0.0524001
10.8539
0.0535267
10.8437
0.0546787
10.8334
0.0558572
10.8228
0.0570633
10.812
0.0582978
10.8009
0.059561
10.7896
0.0608533
10.7781
0.0621749
10.7662
0.0635267
10.7542
0.0649096
10.7418
0.066325
10.7292
0.0677741
10.7163
0.0692576
10.7031
0.070776
10.6896
0.07233
10.6758
0.07392
10.6617
0.0755472
10.6472
0.0772127
10.6325
0.0789181
10.6174
0.0806643
10.602
0.0824524
10.5862
0.0842832
10.5701
0.0861575
10.5536
0.0880764
10.5367
0.0900411
10.5195
0.092053
10.5018
0.0941135
10.4838
0.0962237
10.4654
0.0983847
10.4465
0.100598
10.4272
0.102864
10.4075
0.105186
10.3874
0.107564
10.3667
0.110001
10.3457
0.112496
10.3241
0.115053
10.302
0.117671
10.2795
0.120352
10.2564
0.123098
10.2328
0.125913
10.2087
0.128797
10.184
0.131752
10.1588
0.13478
10.133
0.137882
10.1066
0.141059
10.0796
0.144313
10.052
0.147647
10.0237
0.151063
9.99484
0.154564
9.9653
0.158153
9.93508
0.16183
9.90418
0.165597
9.87257
0.169457
9.84023
0.17341
9.80716
0.177461
9.77333
0.181613
9.73874
0.185867
9.70335
0.190226
9.66715
0.194693
9.63012
0.199269
9.59224
0.203958
9.5535
0.208763
9.51387
0.213688
9.47333
0.218735
9.43186
0.223905
9.38945
0.229202
9.34605
0.234629
9.30167
0.240188
9.25626
0.245886
9.20981
0.251726
9.1623
0.257712
9.11369
0.263845
9.06396
0.270128
9.01309
0.276564
8.96105
0.283158
8.90781
0.289914
8.85334
0.296837
8.79762
0.303934
8.74061
0.311206
8.68229
0.318658
8.62262
0.326294
8.56158
0.334115
8.49912
0.342128
8.43522
0.350337
8.36984
0.35875
8.30295
0.367378
0.376222
10.6949
0.011993
-10.6965
10.6932
0.0122367
10.6915
0.0124855
10.6897
0.0127396
10.6879
0.012999
10.6861
0.013264
10.6842
0.0135345
10.6823
0.0138107
10.6804
0.0140927
10.6784
0.0143807
10.6764
0.0146748
10.6743
0.0149751
10.6722
0.0152818
10.67
0.0155949
10.6678
0.0159147
10.6656
0.0162413
10.6632
0.0165748
10.6609
0.0169154
10.6585
0.0172632
10.656
0.0176185
10.6535
0.0179812
10.651
0.0183517
10.6483
0.0187301
10.6457
0.0191165
10.6429
0.0195112
10.6401
0.0199143
10.6373
0.020326
10.6344
0.0207465
10.6314
0.021176
10.6283
0.0216146
10.6252
0.0220627
10.622
0.0225204
10.6188
0.0229879
10.6155
0.0234655
10.6121
0.0239533
10.6086
0.0244515
10.6051
0.0249604
10.6015
0.0254803
10.5978
0.0260114
10.594
0.026554
10.5901
0.0271084
10.5862
0.0276747
10.5822
0.0282532
10.578
0.0288442
10.5738
0.029448
10.5695
0.0300649
10.5651
0.0306953
10.5606
0.0313394
10.556
0.0319975
10.5513
0.0326698
10.5465
0.0333568
10.5416
0.0340588
10.5366
0.0347763
10.5315
0.0355095
10.5263
0.0362587
10.5209
0.0370243
10.5154
0.0378067
10.5098
0.0386062
10.5041
0.0394234
10.4983
0.0402588
10.4923
0.0411127
10.4862
0.0419855
10.4799
0.0428776
10.4736
0.0437893
10.467
0.0447212
10.4604
0.045674
10.4536
0.046648
10.4466
0.0476439
10.4395
0.0486622
10.4322
0.0497034
10.4247
0.0507679
10.4171
0.0518562
10.4093
0.0529688
10.4014
0.0541064
10.3932
0.0552699
10.3849
0.05646
10.3764
0.0576774
10.3677
0.0589227
10.3588
0.0601963
10.3497
0.0614985
10.3404
0.0628301
10.3309
0.0641919
10.3211
0.0655851
10.3112
0.0670111
10.301
0.0684705
10.2906
0.0699639
10.28
0.0714915
10.2691
0.0730538
10.258
0.0746518
10.2466
0.0762868
10.235
0.0779603
10.2231
0.0796737
10.2109
0.0814278
10.1984
0.0832231
10.1857
0.0850601
10.1727
0.0869396
10.1594
0.0888629
10.1458
0.0908316
10.1318
0.0928475
10.1176
0.0949116
10.103
0.0970251
10.0881
0.0991888
10.0729
0.101403
10.0573
0.103671
10.0413
0.105992
10.025
0.108369
10.0083
0.110803
9.99123
0.113295
9.97377
0.115847
9.9559
0.118461
9.93763
0.121137
9.91894
0.123877
9.89982
0.126684
9.88026
0.12956
9.86025
0.132505
9.83978
0.135521
9.81885
0.138609
9.79743
0.141771
9.77551
0.14501
9.7531
0.148328
9.73017
0.151728
9.70671
0.155212
9.68271
0.15878
9.65815
0.162435
9.63304
0.166177
9.60734
0.17001
9.58105
0.173936
9.55416
0.177958
9.52664
0.182079
9.49849
0.186303
9.46969
0.19063
9.44023
0.195062
9.41008
0.199601
9.37924
0.20425
9.34769
0.209012
9.31541
0.213892
9.28239
0.218893
9.2486
0.224016
9.21402
0.229264
9.17865
0.23464
9.14247
0.240146
9.10544
0.245788
9.06756
0.251569
9.0288
0.257492
8.98915
0.263561
8.94857
0.269777
8.90706
0.276143
8.86458
0.282665
8.82112
0.289346
8.77665
0.296194
8.73116
0.303211
8.6846
0.3104
8.63696
0.317764
8.58822
0.325306
8.53835
0.333031
8.48732
0.340945
8.4351
0.349054
8.38167
0.357364
8.327
0.365881
8.27105
0.374607
8.2138
0.383545
8.15521
0.392698
8.09527
0.402072
8.03393
0.411677
7.97116
0.421521
7.90692
0.431616
0.441961
10.1811
0.0134991
-10.1826
10.1795
0.0137753
10.178
0.0140574
10.1764
0.0143455
10.1747
0.0146397
10.173
0.0149401
10.1713
0.0152469
10.1696
0.0155603
10.1678
0.0158803
10.166
0.0162072
10.1641
0.016541
10.1622
0.0168819
10.1603
0.0172301
10.1583
0.0175857
10.1562
0.017949
10.1541
0.0183199
10.152
0.0186988
10.1499
0.0190859
10.1476
0.0194812
10.1454
0.019885
10.1431
0.0202974
10.1407
0.0207186
10.1383
0.0211489
10.1358
0.0215885
10.1333
0.0220375
10.1307
0.0224962
10.128
0.0229647
10.1254
0.0234433
10.1226
0.0239322
10.1198
0.0244316
10.1169
0.0249419
10.114
0.0254632
10.1109
0.0259957
10.1079
0.0265398
10.1047
0.0270956
10.1015
0.0276633
10.0982
0.0282434
10.0949
0.0288362
10.0915
0.0294418
10.0879
0.0300606
10.0844
0.0306929
10.0807
0.0313389
10.077
0.0319989
10.0731
0.0326732
10.0692
0.0333623
10.0652
0.0340666
10.0611
0.0347863
10.0569
0.0355218
10.0527
0.0362733
10.0483
0.0370412
10.0438
0.037826
10.0392
0.038628
10.0346
0.0394478
10.0298
0.0402857
10.0249
0.0411421
10.0199
0.0420174
10.0148
0.0429119
10.0096
0.0438263
10.0043
0.0447608
9.9988
0.0457163
9.99322
0.0466931
9.98752
0.0476917
9.98168
0.0487126
9.97571
0.049756
9.96961
0.0508228
9.96337
0.0519135
9.95699
0.0530286
9.95047
0.0541688
9.94379
0.0553349
9.93697
0.0565273
9.92999
0.0577466
9.92285
0.0589933
9.91556
0.0602681
9.90809
0.0615717
9.90045
0.062905
9.89265
0.0642688
9.88466
0.0656641
9.87649
0.0670914
9.86814
0.0685512
9.85959
0.0700441
9.85085
0.0715708
9.84191
0.0731324
9.83276
0.0747303
9.82341
0.0763658
9.81384
0.0780395
9.80405
0.0797521
9.79404
0.081504
9.7838
0.0832958
9.77332
0.0851288
9.7626
0.0870046
9.75164
0.0889248
9.74042
0.0908908
9.72895
0.0929034
9.71721
0.0949629
9.7052
0.0970702
9.69291
0.0992263
9.68034
0.101433
9.66748
0.103692
9.65432
0.106005
9.64086
0.108374
9.62708
0.110799
9.61299
0.113281
9.59857
0.115821
9.58382
0.118422
9.56873
0.121085
9.55329
0.123812
9.53748
0.126605
9.52132
0.129464
9.50477
0.132391
9.48784
0.135388
9.47052
0.138457
9.4528
0.1416
9.43467
0.144819
9.41611
0.148117
9.39712
0.151494
9.37769
0.154951
9.35781
0.158491
9.33747
0.162115
9.31665
0.165828
9.29535
0.169631
9.27355
0.173527
9.25124
0.177519
9.22841
0.181607
9.20506
0.185793
9.18115
0.190079
9.1567
0.194468
9.13167
0.198964
9.10606
0.20357
9.07985
0.20829
9.05302
0.213125
9.02558
0.218077
8.99749
0.223149
8.96875
0.228342
8.93934
0.233661
8.90924
0.23911
8.87844
0.244694
8.84691
0.250414
8.81466
0.256273
8.78165
0.262274
8.74787
0.268419
8.7133
0.274714
8.67793
0.281163
8.64172
0.287771
8.60467
0.294541
8.56676
0.301476
8.52796
0.308578
8.48825
0.31585
8.44762
0.323299
8.40603
0.330931
8.36348
0.338752
8.31992
0.346765
8.27535
0.354975
8.22973
0.363382
8.18304
0.37199
8.13527
0.380807
8.08637
0.389839
8.03633
0.399095
7.98512
0.408581
7.9327
0.4183
7.87905
0.428255
7.82415
0.438449
7.76796
0.448887
7.71045
0.459578
7.6516
0.470533
7.59135
0.481763
7.52969
0.493279
0.505072
9.69187
0.0148813
-9.69325
9.69045
0.0151879
9.68901
0.015501
9.68754
0.0158208
9.68603
0.0161474
9.68449
0.0164809
9.68291
0.0168217
9.6813
0.0171698
9.67966
0.0175252
9.67798
0.0178884
9.67626
0.0182593
9.6745
0.0186381
9.67271
0.0190251
9.67087
0.0194205
9.669
0.0198243
9.66708
0.0202368
9.66512
0.0206582
9.66312
0.0210887
9.66107
0.0215284
9.65898
0.0219777
9.65684
0.0224366
9.65465
0.0229054
9.65242
0.0233844
9.65013
0.0238737
9.6478
0.0243737
9.64541
0.0248844
9.64297
0.0254062
9.64047
0.0259393
9.63792
0.026484
9.63531
0.0270405
9.63264
0.0276091
9.62992
0.0281901
9.62713
0.0287837
9.62428
0.0293902
9.62136
0.0300099
9.61838
0.0306431
9.61534
0.0312902
9.61222
0.0319514
9.60904
0.0326271
9.60578
0.0333176
9.60245
0.0340231
9.59904
0.0347441
9.59556
0.0354809
9.592
0.0362338
9.58836
0.0370033
9.58464
0.0377898
9.58083
0.0385937
9.57694
0.0394153
9.57295
0.0402549
9.56888
0.0411129
9.56472
0.0419899
9.56046
0.0428864
9.5561
0.0438028
9.55165
0.0447397
9.5471
0.0456974
9.54244
0.0466762
9.53767
0.0476767
9.5328
0.0486995
9.52781
0.049745
9.52272
0.0508141
9.5175
0.0519072
9.51217
0.0530249
9.50671
0.0541676
9.50113
0.0553359
9.49543
0.0565303
9.48959
0.0577515
9.48362
0.0590003
9.47751
0.0602774
9.47126
0.0615836
9.46487
0.0629195
9.45833
0.0642857
9.45164
0.0656829
9.4448
0.0671116
9.43779
0.0685727
9.43063
0.0700672
9.4233
0.0715962
9.41581
0.0731604
9.40814
0.0747607
9.40029
0.0763977
9.39226
0.078072
9.38405
0.0797845
9.37565
0.0815365
9.36705
0.0833292
9.35825
0.0851641
9.34925
0.0870419
9.34004
0.0889633
9.33061
0.0909289
9.32097
0.0929397
9.3111
0.0949971
9.301
0.0971029
9.29067
0.0992587
9.28009
0.101466
9.26927
0.103725
9.2582
0.106037
9.24686
0.108402
9.23527
0.110823
9.2234
0.113301
9.21126
0.115838
9.19883
0.118435
9.1861
0.121095
9.17309
0.123818
9.15976
0.126604
9.14613
0.129457
9.13217
0.132378
9.11789
0.135369
9.10327
0.138431
9.08831
0.141567
9.07299
0.144777
9.05732
0.148064
9.04128
0.151429
9.02486
0.154875
9.00805
0.158405
8.99085
0.16202
8.97325
0.165722
8.95523
0.169513
8.93678
0.173394
8.91791
0.177368
8.89858
0.181437
8.87881
0.185605
8.85856
0.189874
8.83784
0.194248
8.81663
0.198728
8.79493
0.203315
8.77271
0.208012
8.74996
0.212821
8.72669
0.217746
8.70286
0.222791
8.67847
0.22796
8.6535
0.233255
8.62795
0.238678
8.6018
0.244232
8.57503
0.249919
8.54763
0.255742
8.51958
0.261707
8.49087
0.267819
8.46149
0.27408
8.43141
0.280493
8.40062
0.287061
8.36911
0.293785
8.33685
0.300672
8.30384
0.307727
8.27005
0.314956
8.23546
0.322362
8.20005
0.329948
8.16381
0.337717
8.12672
0.345671
8.08875
0.353817
8.04989
0.362161
8.01011
0.370711
7.96939
0.379472
7.92771
0.388447
7.88504
0.397638
7.84137
0.40705
7.79668
0.416687
7.75093
0.426558
7.70409
0.436672
7.65615
0.447036
7.60708
0.457656
7.55684
0.468534
7.50543
0.479672
7.4528
0.491077
7.39893
0.502757
7.34378
0.514723
7.28733
0.526986
7.22954
0.539557
7.17037
0.552441
0.565629
9.22608
0.0161494
-9.22735
9.22479
0.0164842
9.22346
0.0168262
9.22211
0.0171755
9.22072
0.0175324
9.21931
0.017897
9.21786
0.0182694
9.21638
0.0186498
9.21486
0.0190384
9.21332
0.0194355
9.21174
0.0198411
9.21012
0.0202554
9.20846
0.0206787
9.20677
0.0211112
9.20505
0.021553
9.20328
0.0220044
9.20147
0.0224655
9.19962
0.0229367
9.19773
0.0234181
9.1958
0.0239099
9.19382
0.0244124
9.1918
0.0249259
9.18974
0.0254505
9.18763
0.0259865
9.18546
0.0265341
9.18326
0.0270937
9.181
0.0276655
9.17869
0.0282498
9.17632
0.0288469
9.17391
0.029457
9.17144
0.0300804
9.16891
0.0307174
9.16632
0.0313684
9.16368
0.0320337
9.16098
0.0327135
9.15821
0.0334082
9.15538
0.0341183
9.15249
0.0348439
9.14953
0.0355855
9.14651
0.0363434
9.14341
0.037118
9.14025
0.0379096
9.13701
0.0387187
9.1337
0.0395456
9.13031
0.0403909
9.12684
0.041255
9.1233
0.0421382
9.11967
0.043041
9.11596
0.0439637
9.11217
0.0449068
9.10829
0.0458709
9.10432
0.0468565
9.10026
0.0478642
9.0961
0.0488945
9.09185
0.0499478
9.0875
0.0510245
9.08306
0.0521252
9.07851
0.0532505
9.07385
0.054401
9.06909
0.0555776
9.06421
0.0567808
9.05923
0.0580112
9.05412
0.0592693
9.0489
0.0605556
9.04356
0.0618709
9.0381
0.0632159
9.03251
0.0645914
9.02679
0.0659983
9.02093
0.0674374
9.01494
0.0689095
9.00881
0.0704151
9.00254
0.0719549
8.99612
0.0735298
8.98956
0.0751404
8.98284
0.0767881
8.97596
0.0784739
8.96892
0.0801989
8.96172
0.0819637
8.95434
0.0837692
8.9468
0.0856161
8.93908
0.0875055
8.93118
0.0894386
8.92309
0.0914169
8.91481
0.0934415
8.90634
0.0955136
8.89767
0.097634
8.8888
0.0998035
8.87971
0.102023
8.87041
0.104295
8.8609
0.10662
8.85115
0.109001
8.84118
0.111437
8.83098
0.113932
8.82053
0.116484
8.80983
0.119097
8.79889
0.121771
8.78768
0.124508
8.77621
0.127311
8.76446
0.13018
8.75244
0.133118
8.74013
0.136125
8.72753
0.139204
8.71463
0.142356
8.70142
0.145584
8.68791
0.148888
8.67406
0.152272
8.6599
0.155736
8.64539
0.159283
8.63054
0.162915
8.61533
0.166634
8.59977
0.170442
8.58383
0.174342
8.56751
0.178337
8.55081
0.182427
8.53371
0.186615
8.5162
0.190903
8.49827
0.195294
8.47992
0.19979
8.46113
0.204395
8.44189
0.209113
8.42219
0.213945
8.40203
0.218893
8.38138
0.223961
8.36025
0.229149
8.33861
0.234461
8.31645
0.239902
8.29377
0.245475
8.27054
0.251184
8.24677
0.257032
8.22242
0.263021
8.1975
0.269153
8.17199
0.275432
8.14587
0.281863
8.11913
0.288451
8.09174
0.2952
8.06371
0.302112
8.03501
0.309191
8.00564
0.31644
7.97556
0.323862
7.94477
0.331464