/*--------------------------------*- C++ -*----------------------------------*\
  =========                 |
  \\      /  F ield         | OpenFOAM: The Open Source CFD Toolbox
   \\    /   O peration     | Website:  https://openfoam.org
    \\  /    A nd           | Version:  13
     \\/     M anipulation  |
\*---------------------------------------------------------------------------*/
FoamFile
{
    format      ascii;
    class       volVectorField;
    location    "0.5";
    object      U;
}
// * * * * * * * * * * * * * * * * * * * * * * * * * * * * * * * * * * * * * //

dimensions      [0 1 -1 0 0 0 0];

internalField   nonuniform List<vector> 
68864
(
(30.0155 -0.131047 -1.42427e-21)
(30.0156 -0.131592 -4.27902e-23)
(30.0156 -0.132144 1.1452e-20)
(30.0157 -0.132702 -1.27749e-20)
(30.0157 -0.133267 1.23555e-21)
(30.0158 -0.133839 -1.87955e-21)
(30.0158 -0.134418 5.73515e-21)
(30.0159 -0.135004 -1.87755e-21)
(30.016 -0.135597 2.10955e-21)
(30.016 -0.136196 -7.65848e-21)
(30.0161 -0.136804 4.36796e-21)
(30.0161 -0.137418 5.41028e-22)
(30.0162 -0.13804 -8.85927e-21)
(30.0163 -0.138668 3.61739e-21)
(30.0163 -0.139305 5.06822e-21)
(30.0164 -0.139948 -3.32148e-21)
(30.0164 -0.140599 5.13584e-21)
(30.0165 -0.141257 3.6443e-21)
(30.0166 -0.141923 -1.82661e-21)
(30.0166 -0.142596 -5.99758e-21)
(30.0167 -0.143277 8.8058e-21)
(30.0168 -0.143966 4.48651e-21)
(30.0168 -0.144662 -6.17325e-21)
(30.0169 -0.145366 -6.95681e-21)
(30.017 -0.146077 4.1225e-21)
(30.017 -0.146796 -8.13101e-21)
(30.0171 -0.147522 3.71719e-21)
(30.0172 -0.148257 8.12326e-21)
(30.0172 -0.149 -1.78017e-20)
(30.0173 -0.14975 -1.25493e-20)
(30.0174 -0.150508 3.84295e-21)
(30.0175 -0.151274 1.04323e-20)
(30.0175 -0.152046 -7.54272e-21)
(30.0176 -0.152827 2.00942e-20)
(30.0177 -0.153616 1.19986e-20)
(30.0177 -0.154413 -2.16017e-20)
(30.0178 -0.155218 2.20914e-20)
(30.0179 -0.15603 -1.06547e-20)
(30.018 -0.15685 -1.32156e-20)
(30.018 -0.157676 2.72293e-20)
(30.0181 -0.158511 -2.65749e-20)
(30.0182 -0.159353 2.56129e-20)
(30.0183 -0.160203 -9.2799e-21)
(30.0184 -0.161062 3.62647e-22)
(30.0184 -0.161927 -2.75829e-20)
(30.0185 -0.162798 3.18861e-20)
(30.0186 -0.163676 -9.76785e-21)
(30.0187 -0.164561 -9.50301e-21)
(30.0188 -0.165454 -8.68353e-22)
(30.0189 -0.166356 1.31246e-20)
(30.0189 -0.167266 -1.04748e-20)
(30.019 -0.16818 -3.84447e-21)
(30.0191 -0.1691 2.05665e-20)
(30.0192 -0.170024 -8.89801e-21)
(30.0193 -0.170955 3.94491e-21)
(30.0194 -0.171893 -9.14901e-21)
(30.0195 -0.172841 1.33216e-20)
(30.0196 -0.173795 -1.17724e-20)
(30.0197 -0.174755 8.02304e-21)
(30.0198 -0.175717 -1.94283e-20)
(30.0198 -0.176682 3.03915e-21)
(30.0199 -0.177651 1.46532e-20)
(30.02 -0.178625 -3.79134e-21)
(30.0201 -0.179607 1.10687e-20)
(30.0202 -0.180597 -1.17905e-20)
(30.0203 -0.181591 4.28508e-21)
(30.0204 -0.182588 -5.14871e-21)
(30.0205 -0.183586 3.44583e-21)
(30.0206 -0.184585 2.90794e-22)
(30.0207 -0.185585 4.30791e-21)
(30.0208 -0.186589 4.13801e-21)
(30.0209 -0.187598 -4.27345e-21)
(30.0211 -0.188612 -1.65082e-20)
(30.0212 -0.18963 1.85069e-20)
(30.0213 -0.190649 -7.99671e-21)
(30.0214 -0.191667 -6.51338e-21)
(30.0215 -0.19268 2.11635e-20)
(30.0216 -0.193691 -2.41895e-20)
(30.0217 -0.194702 9.45762e-21)
(30.0218 -0.195717 -1.32968e-20)
(30.0219 -0.196737 2.41106e-20)
(30.022 -0.197759 -1.60824e-20)
(30.0221 -0.198778 4.34296e-21)
(30.0223 -0.199789 1.15602e-20)
(30.0224 -0.200792 -1.43296e-20)
(30.0225 -0.201789 -2.16673e-21)
(30.0226 -0.202786 1.15963e-20)
(30.0227 -0.203785 -4.05708e-21)
(30.0228 -0.204785 -7.98883e-21)
(30.0229 -0.205781 1.44342e-20)
(30.023 -0.206769 4.12336e-21)
(30.0232 -0.207745 4.41723e-21)
(30.0233 -0.208711 -1.85059e-20)
(30.0234 -0.20967 7.3702e-21)
(30.0235 -0.210627 -1.95668e-20)
(30.0236 -0.211581 2.26271e-20)
(30.0237 -0.212531 -3.07766e-20)
(30.0238 -0.21347 2.40086e-20)
(30.0239 -0.214397 1.28778e-21)
(30.024 -0.215311 -2.39597e-20)
(30.0242 -0.216213 3.4213e-20)
(30.0243 -0.217107 -1.14356e-20)
(30.0244 -0.217993 -1.61395e-20)
(30.0245 -0.218871 2.03279e-21)
(30.0246 -0.219737 6.46495e-21)
(30.0247 -0.22059 -4.17897e-21)
(30.0248 -0.221428 1.23101e-20)
(30.0249 -0.222253 3.62827e-21)
(30.025 -0.223066 -1.56365e-20)
(30.0251 -0.223869 2.27609e-21)
(30.0252 -0.224659 2.18823e-21)
(30.0253 -0.225434 1.01691e-21)
(30.0254 -0.226192 3.24177e-21)
(30.0255 -0.226932 -9.27886e-21)
(30.0255 -0.227656 1.1868e-20)
(30.0256 -0.228368 -5.16733e-21)
(30.0257 -0.229069 5.28416e-22)
(30.0258 -0.229758 7.6146e-21)
(30.0259 -0.230432 -3.20416e-21)
(30.026 -0.231087 -4.67637e-21)
(30.0261 -0.23172 -3.2447e-21)
(30.0261 -0.232333 5.76261e-21)
(30.0262 -0.232929 -4.29935e-21)
(30.0263 -0.233512 8.7883e-21)
(30.0264 -0.234084 -6.16266e-22)
(30.0264 -0.234645 7.64078e-22)
(30.0265 -0.235189 -5.13542e-21)
(30.0266 -0.235714 -1.05813e-21)
(30.0266 -0.236218 -1.84277e-21)
(30.0267 -0.236701 2.88416e-21)
(30.0267 -0.237168 -1.94978e-21)
(30.0268 -0.237621 3.88911e-21)
(30.0269 -0.238063 -2.33979e-21)
(30.0269 -0.238491 -4.95828e-24)
(30.027 -0.238901 1.59722e-21)
(30.027 -0.239292 -2.61765e-21)
(30.027 -0.239664 8.39404e-22)
(30.0271 -0.240022 1.83395e-22)
(30.0271 -0.24037 2.02142e-22)
(30.0272 -0.240708 1.1752e-21)
(30.0272 -0.241032 -2.5297e-21)
(30.0273 -0.241336 2.5916e-21)
(30.0273 -0.241618 -1.86449e-21)
(30.0273 -0.24188 -7.54779e-22)
(30.0274 -0.24213 5.1138e-22)
(30.0274 -0.242376 1.53626e-21)
(30.0274 -0.242621 -3.15055e-22)
(30.0274 -0.242858 -1.1013e-21)
(30.0275 -0.243078 5.2861e-22)
(30.0275 -0.243271 6.22166e-22)
(30.0275 -0.243441 -7.95958e-22)
(30.0275 -0.243595 4.66915e-22)
(30.0276 -0.243747 -1.21929e-22)
(30.0276 -0.243901 -2.21506e-22)
(30.0276 -0.244056 3.19779e-24)
(30.0276 -0.244199 1.00319e-22)
(30.0276 -0.244322 1.11872e-22)
(30.0277 -0.244421 -1.04453e-22)
(30.0277 -0.244501 2.24053e-23)
(30.0277 -0.244572 2.23474e-24)
(30.0277 -0.244642 1.17864e-23)
(30.0277 -0.244715 4.00045e-23)
(30.0277 -0.244786 -3.63421e-23)
(30.0277 -0.244846 1.6204e-23)
(30.0277 -0.244889 -1.66553e-23)
(30.0277 -0.244903 1.72333e-24)
(30.0278 -0.244899 4.85037e-25)
(30.0164 -0.131608 -3.1284e-21)
(30.0164 -0.132105 2.74685e-21)
(30.0165 -0.132609 -3.35601e-20)
(30.0166 -0.13312 5.22092e-21)
(30.0166 -0.133637 6.07824e-21)
(30.0167 -0.134162 2.47092e-20)
(30.0168 -0.134694 -3.03854e-20)
(30.0168 -0.135233 2.9871e-20)
(30.0169 -0.13578 -4.10362e-20)
(30.017 -0.136334 4.61144e-21)
(30.0171 -0.136895 1.76629e-20)
(30.0171 -0.137464 -1.71451e-20)
(30.0172 -0.138041 -1.42113e-21)
(30.0173 -0.138625 1.63396e-20)
(30.0174 -0.139217 6.81838e-22)
(30.0174 -0.139816 -6.19215e-21)
(30.0175 -0.140424 1.805e-20)
(30.0176 -0.141039 -1.30311e-20)
(30.0177 -0.141662 3.97617e-21)
(30.0178 -0.142293 3.59745e-21)
(30.0179 -0.142932 -4.14091e-21)
(30.0179 -0.143579 -3.25934e-21)
(30.018 -0.144234 2.84985e-20)
(30.0181 -0.144898 -3.84314e-20)
(30.0182 -0.145569 -5.96023e-21)
(30.0183 -0.146248 3.05313e-20)
(30.0184 -0.146936 -1.69219e-20)
(30.0185 -0.147632 1.10518e-20)
(30.0186 -0.148336 -1.98276e-20)
(30.0187 -0.149049 1.16912e-20)
(30.0188 -0.14977 -1.4507e-20)
(30.0189 -0.150499 2.96692e-20)
(30.019 -0.151236 -2.39309e-20)
(30.0191 -0.151981 -1.81372e-20)
(30.0192 -0.152735 6.93988e-20)
(30.0193 -0.153498 2.97944e-21)
(30.0194 -0.154269 -3.25873e-20)
(30.0195 -0.155049 1.89079e-21)
(30.0196 -0.155836 1.26063e-20)
(30.0197 -0.156631 -7.17023e-21)
(30.0198 -0.157434 -2.05337e-20)
(30.0199 -0.158246 1.30987e-20)
(30.02 -0.159067 1.54224e-20)
(30.0202 -0.159896 -2.16374e-20)
(30.0203 -0.160732 -1.58179e-20)
(30.0204 -0.161576 3.38317e-20)
(30.0205 -0.162426 -5.81193e-20)
(30.0206 -0.163285 6.98398e-20)
(30.0208 -0.164154 -3.89145e-20)
(30.0209 -0.165031 -2.06492e-20)
(30.021 -0.165917 6.77234e-21)
(30.0212 -0.166808 4.78148e-20)
(30.0213 -0.167704 -4.23148e-22)
(30.0214 -0.168606 3.83038e-21)
(30.0216 -0.169516 -4.31249e-20)
(30.0217 -0.170435 -1.62524e-20)
(30.0218 -0.171364 2.8057e-20)
(30.022 -0.172301 -1.35666e-20)
(30.0221 -0.173243 5.03321e-21)
(30.0223 -0.174189 -2.10402e-21)
(30.0224 -0.175137 1.24434e-21)
(30.0226 -0.17609 1.2739e-20)
(30.0227 -0.177051 3.57689e-20)
(30.0229 -0.178021 -5.0299e-20)
(30.023 -0.179 2.4599e-20)
(30.0232 -0.179984 -3.80918e-20)
(30.0234 -0.180971 -1.25383e-20)
(30.0235 -0.181959 4.05187e-20)
(30.0237 -0.182949 1.5171e-20)
(30.0239 -0.183942 -1.01981e-20)
(30.024 -0.18494 -2.36947e-20)
(30.0242 -0.185944 3.56179e-20)
(30.0244 -0.186955 -1.62435e-20)
(30.0246 -0.187971 1.30479e-20)
(30.0247 -0.188989 -2.33954e-20)
(30.0249 -0.190005 2.06668e-20)
(30.0251 -0.191017 1.23502e-20)
(30.0253 -0.192028 9.61972e-22)
(30.0254 -0.193041 -3.983e-20)
(30.0256 -0.19406 2.83043e-20)
(30.0258 -0.195085 -4.46061e-20)
(30.026 -0.196114 3.00378e-20)
(30.0262 -0.197141 -1.33606e-20)
(30.0264 -0.19816 1.66115e-20)
(30.0266 -0.19917 -1.37493e-20)
(30.0268 -0.200175 2.67009e-20)
(30.027 -0.201181 -2.00529e-20)
(30.0272 -0.202191 5.6426e-21)
(30.0274 -0.203205 -1.67238e-21)
(30.0276 -0.204218 -1.64082e-20)
(30.0278 -0.205222 3.22325e-20)
(30.028 -0.206215 -1.43184e-20)
(30.0281 -0.207196 -9.19528e-21)
(30.0283 -0.208171 -6.8708e-21)
(30.0285 -0.209144 -2.87129e-21)
(30.0287 -0.210116 7.53685e-21)
(30.0289 -0.211086 1.60893e-20)
(30.0291 -0.212049 8.09404e-21)
(30.0293 -0.213001 -2.7135e-20)
(30.0295 -0.213939 -7.92708e-21)
(30.0297 -0.214865 8.16883e-21)
(30.0299 -0.215782 1.56102e-20)
(30.0301 -0.216691 3.74189e-21)
(30.0303 -0.217592 -3.93138e-21)
(30.0305 -0.218484 -9.9612e-21)
(30.0307 -0.219365 -4.2403e-21)
(30.0309 -0.220233 6.44139e-21)
(30.031 -0.221087 1.60141e-20)
(30.0312 -0.22193 -1.53855e-20)
(30.0314 -0.222761 4.37609e-21)
(30.0316 -0.223579 -1.10663e-20)
(30.0318 -0.224383 1.72568e-20)
(30.0319 -0.22517 -8.00498e-21)
(30.0321 -0.225941 -2.95288e-21)
(30.0323 -0.226697 1.3477e-20)
(30.0324 -0.227439 -1.57105e-20)
(30.0326 -0.22817 -4.83717e-22)
(30.0328 -0.22889 4.92486e-21)
(30.0329 -0.229595 8.11741e-21)
(30.0331 -0.230282 -7.10807e-21)
(30.0332 -0.230948 -6.20584e-21)
(30.0334 -0.231593 9.9064e-21)
(30.0335 -0.232219 -5.37983e-21)
(30.0336 -0.232831 1.16614e-21)
(30.0338 -0.233431 7.72745e-22)
(30.0339 -0.234019 -6.93669e-21)
(30.034 -0.234594 7.89754e-22)
(30.0342 -0.23515 -1.54666e-22)
(30.0343 -0.235685 9.84402e-21)
(30.0344 -0.236198 -3.94403e-21)
(30.0345 -0.236693 1.76056e-21)
(30.0346 -0.237172 -2.40392e-21)
(30.0347 -0.237638 1.95626e-21)
(30.0348 -0.23809 -2.84964e-21)
(30.0349 -0.238526 5.996e-21)
(30.035 -0.238943 -6.71434e-21)
(30.0351 -0.239342 4.34315e-21)
(30.0352 -0.239725 -3.80707e-21)
(30.0353 -0.240096 6.42656e-23)
(30.0353 -0.240455 4.53624e-21)
(30.0354 -0.240799 -8.73294e-22)
(30.0355 -0.241122 -1.66267e-21)
(30.0355 -0.241423 1.70264e-21)
(30.0356 -0.241705 5.84417e-22)
(30.0357 -0.241976 -3.08267e-21)
(30.0357 -0.242242 -2.82411e-22)
(30.0358 -0.242505 3.50612e-21)
(30.0358 -0.242757 -3.17858e-21)
(30.0359 -0.242989 1.98709e-21)
(30.0359 -0.243194 8.0397e-22)
(30.0359 -0.243377 -2.50648e-21)
(30.036 -0.243547 6.71782e-22)
(30.036 -0.243714 -5.99626e-22)
(30.036 -0.243883 4.90353e-22)
(30.0361 -0.244048 2.99755e-22)
(30.0361 -0.244199 -3.78565e-22)
(30.0361 -0.244327 8.0733e-22)
(30.0361 -0.244432 -7.36758e-22)
(30.0362 -0.244522 3.02864e-22)
(30.0362 -0.244605 -6.98709e-23)
(30.0362 -0.244686 1.87535e-22)
(30.0362 -0.244764 -3.79207e-23)
(30.0362 -0.244835 -7.01224e-23)
(30.0362 -0.244894 5.46463e-23)
(30.0362 -0.244939 -5.16902e-23)
(30.0362 -0.244961 7.41214e-24)
(30.0362 -0.244961 -4.58996e-24)
(30.0065 -0.131693 -2.34953e-20)
(30.0066 -0.132196 -9.15999e-21)
(30.0067 -0.132706 -1.00845e-20)
(30.0068 -0.133222 2.32661e-20)
(30.0068 -0.133746 -2.9024e-20)
(30.0069 -0.134276 5.34892e-20)
(30.007 -0.134814 -7.47785e-21)
(30.0071 -0.135358 2.04562e-21)
(30.0072 -0.13591 3.25927e-22)
(30.0073 -0.13647 5.32962e-21)
(30.0074 -0.137037 -3.87243e-20)
(30.0075 -0.137611 1.42026e-20)
(30.0076 -0.138193 1.74647e-20)
(30.0078 -0.138783 1.71806e-20)
(30.0079 -0.13938 -2.20068e-20)
(30.008 -0.139985 1.27314e-20)
(30.0081 -0.140598 -2.11202e-21)
(30.0082 -0.141218 1.43396e-21)
(30.0083 -0.141846 -1.8834e-20)
(30.0084 -0.142482 -3.17001e-21)
(30.0086 -0.143126 -1.07096e-20)
(30.0087 -0.143779 -1.14686e-20)
(30.0088 -0.14444 1.85594e-20)
(30.0089 -0.145108 5.26954e-21)
(30.0091 -0.145785 -2.68869e-20)
(30.0092 -0.146469 4.66998e-20)
(30.0093 -0.147161 -3.76612e-20)
(30.0095 -0.147862 6.78307e-21)
(30.0096 -0.148572 3.30322e-20)
(30.0097 -0.14929 1.69012e-21)
(30.0099 -0.150016 -4.44196e-20)
(30.01 -0.15075 3.26251e-20)
(30.0102 -0.151492 -3.73118e-20)
(30.0103 -0.152242 -7.59879e-21)
(30.0105 -0.153001 3.27882e-20)
(30.0106 -0.153769 -6.99188e-21)
(30.0108 -0.154545 -1.10146e-20)
(30.0109 -0.15533 2.07307e-20)
(30.0111 -0.156122 5.82991e-21)
(30.0113 -0.156922 1.68589e-20)
(30.0114 -0.15773 -8.49136e-20)
(30.0116 -0.158547 1.724e-20)
(30.0118 -0.159372 8.97372e-20)
(30.0119 -0.160206 -1.02039e-19)
(30.0121 -0.161047 8.71417e-22)
(30.0123 -0.161896 5.65436e-20)
(30.0125 -0.162752 4.66443e-20)
(30.0127 -0.163616 -2.84124e-20)
(30.0129 -0.164488 1.36069e-20)
(30.0131 -0.16537 -2.34432e-20)
(30.0133 -0.166259 5.39871e-21)
(30.0135 -0.167155 -2.48874e-20)
(30.0137 -0.168057 5.02131e-20)
(30.0139 -0.168965 8.0706e-21)
(30.0141 -0.16988 -4.59365e-20)
(30.0143 -0.170803 -4.26228e-20)
(30.0145 -0.171736 9.89356e-21)
(30.0147 -0.172676 7.41374e-20)
(30.0149 -0.173622 -3.3802e-20)
(30.0152 -0.174571 -3.40794e-20)
(30.0154 -0.175524 -1.92926e-20)
(30.0156 -0.176483 3.72296e-20)
(30.0159 -0.177449 6.04462e-20)
(30.0161 -0.178423 -8.49879e-20)
(30.0163 -0.179404 3.64063e-20)
(30.0166 -0.180391 1.41702e-20)
(30.0168 -0.181381 2.63863e-20)
(30.0171 -0.182373 -3.8588e-20)
(30.0173 -0.183367 1.11518e-20)
(30.0176 -0.184364 -1.34804e-20)
(30.0178 -0.185366 4.72539e-20)
(30.0181 -0.186373 -1.6373e-21)
(30.0184 -0.187386 -4.5221e-20)
(30.0186 -0.188404 9.6489e-21)
(30.0189 -0.189423 -1.60013e-21)
(30.0192 -0.190441 1.01479e-20)
(30.0195 -0.191457 -2.49629e-20)
(30.0197 -0.192471 -1.58207e-20)
(30.02 -0.193488 -2.66221e-21)
(30.0203 -0.194509 1.58239e-20)
(30.0206 -0.195535 -2.15755e-20)
(30.0209 -0.196564 5.99183e-20)
(30.0212 -0.197589 -2.84216e-21)
(30.0215 -0.198608 -3.98711e-20)
(30.0218 -0.199618 4.90888e-21)
(30.0221 -0.200625 2.51068e-20)
(30.0224 -0.201634 -1.28528e-20)
(30.0227 -0.202647 -4.65409e-20)
(30.023 -0.203661 5.76247e-20)
(30.0233 -0.204673 -1.88823e-20)
(30.0236 -0.205674 -1.63103e-20)
(30.0239 -0.206663 -1.41243e-20)
(30.0242 -0.207642 8.5854e-21)
(30.0245 -0.208615 5.5213e-20)
(30.0248 -0.209588 -2.38779e-20)
(30.0251 -0.210562 -1.05933e-20)
(30.0254 -0.211532 3.53494e-20)
(30.0257 -0.212493 -3.65641e-20)
(30.026 -0.21344 3.02517e-20)
(30.0263 -0.214374 -2.99193e-20)
(30.0266 -0.215295 -5.7318e-21)
(30.0269 -0.216207 -5.56986e-22)
(30.0272 -0.217113 4.05264e-21)
(30.0275 -0.218013 1.22768e-20)
(30.0278 -0.218903 5.33778e-21)
(30.0281 -0.21978 -3.79102e-20)
(30.0284 -0.220643 1.87395e-20)
(30.0287 -0.221492 2.8585e-20)
(30.029 -0.222329 -5.55156e-21)
(30.0293 -0.223155 -3.65877e-20)
(30.0295 -0.223968 3.9392e-20)
(30.0298 -0.224767 -1.99454e-20)
(30.0301 -0.225549 1.93618e-20)
(30.0304 -0.226314 -2.47784e-21)
(30.0306 -0.227064 -2.83448e-20)
(30.0309 -0.2278 4.39064e-21)
(30.0311 -0.228526 4.32139e-21)
(30.0314 -0.22924 5.82413e-21)
(30.0316 -0.229939 -1.53061e-21)
(30.0319 -0.230619 -7.91914e-21)
(30.0321 -0.231278 -3.59011e-21)
(30.0323 -0.231916 -7.6549e-21)
(30.0326 -0.232535 2.16655e-20)
(30.0328 -0.23314 4.08134e-21)
(30.033 -0.233735 -1.57067e-20)
(30.0332 -0.234317 1.14278e-21)
(30.0334 -0.234885 3.32784e-22)
(30.0336 -0.235434 -7.11837e-21)
(30.0338 -0.235961 4.98526e-21)
(30.034 -0.236467 6.07502e-21)
(30.0342 -0.236954 6.93707e-21)
(30.0343 -0.237426 -6.2799e-21)
(30.0345 -0.237885 1.90162e-21)
(30.0347 -0.238331 -6.50446e-21)
(30.0348 -0.238761 4.92499e-21)
(30.035 -0.239172 -1.032e-21)
(30.0351 -0.239565 1.23229e-21)
(30.0353 -0.23994 -6.82658e-22)
(30.0354 -0.240302 1.56048e-21)
(30.0355 -0.240652 -2.40084e-21)
(30.0356 -0.240988 -3.81597e-23)
(30.0358 -0.241307 1.44223e-21)
(30.0359 -0.241605 1.55031e-21)
(30.036 -0.241884 7.90833e-22)
(30.0361 -0.24215 -6.12267e-21)
(30.0362 -0.242407 1.44326e-21)
(30.0363 -0.242658 4.25793e-21)
(30.0364 -0.2429 -3.09534e-21)
(30.0364 -0.243125 -4.6072e-22)
(30.0365 -0.243329 1.34134e-21)
(30.0366 -0.243512 -3.27847e-21)
(30.0367 -0.243681 2.61389e-21)
(30.0367 -0.243842 -6.62805e-22)
(30.0368 -0.244001 1.0161e-21)
(30.0368 -0.244155 -5.88239e-22)
(30.0369 -0.244297 2.6517e-23)
(30.037 -0.244423 4.03331e-22)
(30.037 -0.244529 -4.44048e-22)
(30.0371 -0.244617 4.33381e-22)
(30.0371 -0.244696 -6.50949e-22)
(30.0371 -0.244769 8.24846e-23)
(30.0372 -0.244839 2.10258e-22)
(30.0372 -0.244906 -4.07742e-23)
(30.0373 -0.244965 7.99145e-24)
(30.0373 -0.245008 4.82211e-23)
(30.0373 -0.245022 -1.84778e-23)
(30.0374 -0.24501 6.4554e-24)
(30.0021 -0.133215 7.51579e-21)
(30.0022 -0.133687 -1.15299e-20)
(30.0023 -0.134165 2.78202e-20)
(30.0024 -0.13465 -2.93905e-20)
(30.0025 -0.135143 6.20207e-20)
(30.0026 -0.135642 -8.805e-20)
(30.0027 -0.136149 4.809e-20)
(30.0028 -0.136662 3.58424e-20)
(30.003 -0.137183 1.66243e-20)
(30.0031 -0.137712 -4.48337e-20)
(30.0032 -0.138248 3.75213e-20)
(30.0033 -0.138791 -3.46587e-20)
(30.0034 -0.139343 2.06944e-20)
(30.0036 -0.139901 -1.85474e-20)
(30.0037 -0.140468 3.78806e-21)
(30.0038 -0.141042 -2.71986e-20)
(30.004 -0.141624 -1.35646e-20)
(30.0041 -0.142214 6.14794e-20)
(30.0042 -0.142812 -1.78855e-20)
(30.0044 -0.143418 -5.36177e-20)
(30.0045 -0.144033 -1.81902e-20)
(30.0047 -0.144655 2.24944e-20)
(30.0048 -0.145286 -2.50119e-20)
(30.0049 -0.145925 4.90511e-20)
(30.0051 -0.146572 -5.37452e-21)
(30.0053 -0.147227 1.24028e-20)
(30.0054 -0.147891 -3.25496e-20)
(30.0056 -0.148563 2.48722e-20)
(30.0057 -0.149245 2.39145e-20)
(30.0059 -0.149935 2.09329e-20)
(30.0061 -0.150633 -3.51933e-20)
(30.0062 -0.151339 -3.22768e-21)
(30.0064 -0.152053 -5.06002e-20)
(30.0066 -0.152776 8.41195e-20)
(30.0068 -0.153508 -6.94065e-20)
(30.007 -0.154249 5.06413e-21)
(30.0071 -0.155 2.08427e-20)
(30.0073 -0.155758 -2.837e-20)
(30.0075 -0.156525 7.34549e-20)
(30.0077 -0.157299 -8.0028e-20)
(30.0079 -0.158082 8.894e-20)
(30.0081 -0.158874 -7.57822e-20)
(30.0083 -0.159675 3.34517e-20)
(30.0085 -0.160485 2.68458e-20)
(30.0088 -0.161304 -4.25712e-20)
(30.009 -0.162129 1.9085e-20)
(30.0092 -0.162962 -2.6091e-20)
(30.0094 -0.163802 2.06854e-20)
(30.0097 -0.164653 1.74871e-20)
(30.0099 -0.165513 -1.08268e-20)
(30.0101 -0.166382 -6.67167e-21)
(30.0104 -0.167258 7.0026e-20)
(30.0106 -0.16814 -1.03681e-19)
(30.0109 -0.169027 6.68663e-20)
(30.0111 -0.169922 2.14647e-20)
(30.0114 -0.170825 -9.42244e-20)
(30.0117 -0.171739 2.96905e-20)
(30.0119 -0.172661 -2.61856e-20)
(30.0122 -0.17359 9.10106e-20)
(30.0125 -0.174523 -7.42554e-20)
(30.0128 -0.17546 1.86284e-20)
(30.013 -0.176403 -1.72049e-20)
(30.0133 -0.177352 9.01705e-20)
(30.0136 -0.178309 -4.06427e-20)
(30.0139 -0.179275 4.25799e-20)
(30.0142 -0.180247 -1.00483e-19)
(30.0145 -0.181223 -4.3314e-20)
(30.0148 -0.182203 3.07683e-20)
(30.0152 -0.183185 3.42799e-20)
(30.0155 -0.18417 3.24395e-20)
(30.0158 -0.185158 2.39811e-20)
(30.0161 -0.186153 -1.12256e-19)
(30.0165 -0.187154 6.42389e-20)
(30.0168 -0.18816 -3.61163e-20)
(30.0171 -0.18917 3.65861e-20)
(30.0175 -0.19018 3.87435e-20)
(30.0178 -0.191187 -9.59569e-20)
(30.0182 -0.192193 1.18339e-19)
(30.0185 -0.193201 -3.61819e-20)
(30.0189 -0.194213 -3.75917e-20)
(30.0192 -0.19523 4.90218e-20)
(30.0196 -0.196251 -5.75231e-20)
(30.02 -0.197269 -2.44164e-20)
(30.0203 -0.198282 2.37903e-20)
(30.0207 -0.199289 4.99552e-20)
(30.0211 -0.200293 -2.71666e-20)
(30.0215 -0.201298 1.47117e-20)
(30.0218 -0.202306 -2.13107e-20)
(30.0222 -0.203315 1.40822e-21)
(30.0226 -0.20432 -4.5412e-20)
(30.023 -0.205316 5.79167e-20)
(30.0234 -0.206302 -1.87559e-20)
(30.0238 -0.207279 5.57483e-20)
(30.0241 -0.208254 -4.04098e-20)
(30.0245 -0.209228 -2.53314e-20)
(30.0249 -0.210202 9.3554e-22)
(30.0253 -0.21117 -7.64714e-21)
(30.0257 -0.212129 -1.28974e-20)
(30.0261 -0.213074 5.95483e-21)
(30.0265 -0.214006 -1.05397e-20)
(30.0268 -0.214928 2.12174e-20)
(30.0272 -0.215844 3.62597e-20)
(30.0276 -0.216755 -1.99599e-20)
(30.028 -0.217657 4.06801e-20)
(30.0284 -0.218549 -2.56147e-20)
(30.0287 -0.219427 1.28045e-20)
(30.0291 -0.220292 -2.48999e-20)
(30.0295 -0.221144 -2.19466e-21)
(30.0298 -0.221986 2.08488e-20)
(30.0302 -0.222818 -4.27145e-20)
(30.0305 -0.223637 3.46243e-20)
(30.0309 -0.22444 1.23895e-20)
(30.0312 -0.225226 -4.30268e-20)
(30.0316 -0.225995 3.32756e-20)
(30.0319 -0.226749 -1.41245e-20)
(30.0322 -0.227493 -1.07622e-20)
(30.0326 -0.228228 -8.2813e-21)
(30.0329 -0.22895 3.36283e-21)
(30.0332 -0.229656 -7.9296e-21)
(30.0335 -0.230341 1.63427e-20)
(30.0338 -0.231006 -5.38354e-21)
(30.0341 -0.23165 1.68205e-20)
(30.0343 -0.232277 -2.24738e-20)
(30.0346 -0.232892 1.33759e-20)
(30.0349 -0.233497 1.28291e-20)
(30.0351 -0.234088 -1.94637e-20)
(30.0354 -0.234664 8.70116e-21)
(30.0356 -0.23522 -1.01135e-21)
(30.0359 -0.235755 3.61652e-22)
(30.0361 -0.236269 -1.0675e-20)
(30.0363 -0.236765 2.69677e-20)
(30.0365 -0.237248 -2.27137e-20)
(30.0367 -0.237718 1.10434e-20)
(30.0369 -0.238174 1.51079e-21)
(30.0371 -0.238612 -3.76549e-22)
(30.0373 -0.239031 -8.6967e-22)
(30.0374 -0.23943 -8.09949e-21)
(30.0376 -0.239814 7.07743e-21)
(30.0377 -0.240186 2.31692e-21)
(30.0379 -0.240547 -6.99704e-21)
(30.038 -0.240894 -2.35604e-22)
(30.0382 -0.241222 1.93408e-21)
(30.0383 -0.241528 3.50952e-21)
(30.0384 -0.241813 1.07272e-22)
(30.0385 -0.242084 -1.94445e-21)
(30.0386 -0.242349 1.33443e-22)
(30.0387 -0.24261 -2.86806e-22)
(30.0388 -0.242862 -2.62773e-21)
(30.0388 -0.243097 8.34362e-21)
(30.0389 -0.243308 -3.84669e-21)
(30.039 -0.243496 -1.14993e-21)
(30.039 -0.243669 5.84484e-22)
(30.0391 -0.243835 1.75373e-21)
(30.0391 -0.244001 -9.89597e-23)
(30.0392 -0.244164 -1.4654e-21)
(30.0392 -0.244315 -2.98724e-22)
(30.0392 -0.244445 1.33296e-21)
(30.0393 -0.244554 -4.53069e-22)
(30.0393 -0.244645 1.33868e-22)
(30.0393 -0.244728 -1.85807e-22)
(30.0393 -0.244807 -8.56368e-23)
(30.0393 -0.244886 2.01171e-22)
(30.0394 -0.244959 -1.40148e-22)
(30.0394 -0.24502 -5.55008e-23)
(30.0394 -0.24506 1.03259e-22)
(30.0394 -0.245073 -1.795e-23)
(30.0394 -0.245066 -1.23341e-23)
(29.9945 -0.133757 2.60913e-20)
(29.9946 -0.134232 -3.60413e-20)
(29.9947 -0.134714 -1.40617e-20)
(29.9949 -0.135203 3.66402e-20)
(29.995 -0.135699 -1.32281e-20)
(29.9951 -0.136202 1.32107e-20)
(29.9952 -0.136712 -3.47489e-20)
(29.9953 -0.13723 1.78894e-20)
(29.9955 -0.137755 3.1006e-20)
(29.9956 -0.138287 -5.2182e-20)
(29.9957 -0.138827 8.58888e-20)
(29.9959 -0.139375 -8.51912e-20)
(29.996 -0.139931 5.02698e-20)
(29.9961 -0.140494 -3.78587e-20)
(29.9963 -0.141065 3.99573e-22)
(29.9964 -0.141644 5.85529e-20)
(29.9966 -0.142231 -1.13173e-19)
(29.9967 -0.142825 6.05526e-20)
(29.9969 -0.143428 5.92558e-21)
(29.9971 -0.144039 -1.3431e-21)
(29.9972 -0.144659 -3.06038e-20)
(29.9974 -0.145286 -1.57529e-20)
(29.9976 -0.145922 -3.16073e-20)
(29.9977 -0.146566 9.20646e-20)
(29.9979 -0.147219 -7.04829e-21)
(29.9981 -0.147879 3.49672e-20)
(29.9983 -0.148548 -5.4542e-20)
(29.9985 -0.149226 1.63844e-20)
(29.9986 -0.149913 -3.45829e-20)
(29.9988 -0.150608 4.05635e-20)
(29.999 -0.151312 4.07609e-20)
(29.9992 -0.152024 -5.62729e-20)
(29.9994 -0.152744 -2.75036e-20)
(29.9997 -0.153473 4.36313e-20)
(29.9999 -0.154211 -8.69701e-20)
(30.0001 -0.154958 1.19853e-19)
(30.0003 -0.155714 -4.73978e-20)
(30.0005 -0.156478 4.53422e-20)
(30.0008 -0.157251 9.48509e-21)
(30.001 -0.158031 -5.53685e-20)
(30.0013 -0.158821 8.42833e-21)
(30.0015 -0.159619 1.20821e-20)
(30.0018 -0.160426 -1.31664e-21)
(30.002 -0.161242 -6.95195e-20)
(30.0023 -0.162066 7.4358e-20)
(30.0025 -0.162897 -1.40652e-20)
(30.0028 -0.163736 7.34316e-21)
(30.0031 -0.164583 1.54607e-20)
(30.0034 -0.16544 -3.65293e-20)
(30.0037 -0.166307 4.94341e-20)
(30.004 -0.167182 -3.66114e-20)
(30.0043 -0.168063 -1.14713e-20)
(30.0046 -0.16895 3.40251e-20)
(30.0049 -0.169842 1.33932e-20)
(30.0052 -0.170743 -3.25046e-20)
(30.0055 -0.171652 -1.74805e-20)
(30.0058 -0.172572 -4.97755e-20)
(30.0062 -0.1735 3.40128e-20)
(30.0065 -0.174435 -5.56398e-20)
(30.0068 -0.175373 9.70963e-20)
(30.0072 -0.176314 7.55005e-21)
(30.0075 -0.177261 -1.19042e-19)
(30.0079 -0.178214 1.37917e-19)
(30.0083 -0.179176 -1.07226e-19)
(30.0086 -0.180146 1.50096e-20)
(30.009 -0.181123 6.08937e-20)
(30.0094 -0.182105 -6.12693e-20)
(30.0098 -0.183088 7.39326e-20)
(30.0102 -0.184072 -1.20591e-19)
(30.0106 -0.185059 6.41852e-20)
(30.011 -0.186049 5.39892e-20)
(30.0114 -0.187046 -5.69782e-20)
(30.0118 -0.18805 1.1386e-19)
(30.0122 -0.18906 -3.07643e-20)
(30.0127 -0.190072 2.1023e-20)
(30.0131 -0.191083 -1.20863e-19)
(30.0135 -0.192091 2.30592e-20)
(30.014 -0.193097 -4.48032e-20)
(30.0144 -0.194103 9.28734e-20)
(30.0149 -0.195114 -1.02599e-19)
(30.0153 -0.19613 9.70686e-20)
(30.0158 -0.197149 -4.52908e-20)
(30.0163 -0.198168 8.29218e-20)
(30.0167 -0.199181 -1.22623e-19)
(30.0172 -0.200187 9.20612e-20)
(30.0177 -0.201188 -4.44065e-21)
(30.0181 -0.202188 -1.05758e-19)
(30.0186 -0.20319 1.55884e-19)
(30.0191 -0.204192 -8.32603e-20)
(30.0196 -0.205191 -1.71872e-20)
(30.0201 -0.206183 4.83247e-20)
(30.0206 -0.207165 -2.29775e-20)
(30.0211 -0.20814 -1.53955e-20)
(30.0216 -0.20911 5.97302e-20)
(30.022 -0.210077 -6.68936e-20)
(30.0225 -0.211041 2.04618e-21)
(30.023 -0.211998 -3.29571e-20)
(30.0235 -0.212945 6.62529e-20)
(30.024 -0.21388 3.71776e-21)
(30.0245 -0.214805 -1.175e-20)
(30.025 -0.215721 -5.81154e-21)
(30.0255 -0.216629 -3.08068e-20)
(30.026 -0.217528 7.88735e-21)
(30.0265 -0.218418 3.32362e-20)
(30.0269 -0.219296 -5.98304e-20)
(30.0274 -0.22016 4.73047e-20)
(30.0279 -0.221013 1.61937e-20)
(30.0284 -0.221854 -2.66696e-20)
(30.0288 -0.222685 3.57467e-20)
(30.0293 -0.223504 -1.06693e-21)
(30.0297 -0.224308 -3.06953e-20)
(30.0302 -0.225096 2.0617e-20)
(30.0306 -0.225867 1.38448e-20)
(30.0311 -0.226622 -1.98599e-20)
(30.0315 -0.227364 4.54005e-21)
(30.0319 -0.228095 -9.26533e-21)
(30.0323 -0.228814 -5.61152e-21)
(30.0328 -0.22952 -2.7273e-20)
(30.0332 -0.23021 5.26107e-20)
(30.0336 -0.230879 2.5167e-21)
(30.0339 -0.231529 -2.42552e-20)
(30.0343 -0.232159 4.38008e-21)
(30.0347 -0.232774 -2.10134e-20)
(30.035 -0.233374 2.38419e-20)
(30.0354 -0.233963 1.98096e-20)
(30.0357 -0.234538 -1.98792e-20)
(30.036 -0.235098 1.62435e-20)
(30.0364 -0.23564 -5.73351e-21)
(30.0367 -0.236161 -1.99757e-20)
(30.037 -0.236662 -5.51018e-21)
(30.0373 -0.237145 -1.03642e-21)
(30.0375 -0.237613 3.43109e-21)
(30.0378 -0.238069 2.00066e-20)
(30.0381 -0.23851 -2.25268e-20)
(30.0383 -0.238934 4.63131e-21)
(30.0385 -0.239339 -2.61764e-21)
(30.0388 -0.239727 6.02413e-21)
(30.039 -0.2401 5.75804e-21)
(30.0392 -0.240461 -6.94109e-21)
(30.0394 -0.240811 5.54379e-21)
(30.0396 -0.241146 -6.59197e-21)
(30.0397 -0.24146 5.42555e-21)
(30.0399 -0.241752 -3.02276e-21)
(30.04 -0.242026 -5.29874e-22)
(30.0402 -0.242289 -8.55464e-22)
(30.0403 -0.242548 5.22234e-22)
(30.0405 -0.242801 5.96534e-22)
(30.0406 -0.243044 -1.78848e-21)
(30.0407 -0.243267 3.44418e-21)
(30.0408 -0.243466 1.88647e-23)
(30.0409 -0.243645 9.64064e-22)
(30.0409 -0.243811 -2.40297e-21)
(30.041 -0.243974 1.11171e-21)
(30.0411 -0.244135 5.76154e-22)
(30.0412 -0.244291 -2.43498e-21)
(30.0412 -0.244432 2.25095e-21)
(30.0413 -0.244553 -1.09038e-22)
(30.0413 -0.244655 -9.493e-22)
(30.0413 -0.244743 -4.00006e-22)
(30.0414 -0.244824 -2.79696e-22)
(30.0414 -0.244902 3.14032e-23)
(30.0414 -0.244975 1.29661e-22)
(30.0414 -0.24504 -1.59741e-22)
(30.0414 -0.245091 -9.92774e-23)
(30.0414 -0.245125 -6.18582e-23)
(30.0414 -0.245135 -2.67013e-23)
(30.0414 -0.245131 -1.17994e-23)
(29.9884 -0.135455 -5.49493e-20)
(29.9885 -0.135919 -3.20172e-20)
(29.9886 -0.136389 7.29063e-20)
(29.9888 -0.136866 -3.76335e-20)
(29.9889 -0.13735 5.1558e-21)
(29.989 -0.137841 8.44987e-21)
(29.9892 -0.13834 7.7765e-21)
(29.9893 -0.138845 3.23718e-20)
(29.9894 -0.139358 -8.58263e-20)
(29.9896 -0.139878 2.34401e-20)
(29.9897 -0.140406 2.91953e-20)
(29.9899 -0.140941 5.98951e-21)
(29.99 -0.141484 -5.8056e-21)
(29.9902 -0.142035 5.12214e-20)
(29.9904 -0.142593 -5.50072e-20)
(29.9905 -0.143159 1.41246e-20)
(29.9907 -0.143734 2.30436e-20)
(29.9909 -0.144316 -4.49e-20)
(29.991 -0.144906 -2.7851e-20)
(29.9912 -0.145504 7.25057e-20)
(29.9914 -0.14611 -8.30091e-20)
(29.9916 -0.146725 7.50178e-20)
(29.9918 -0.147348 -1.70256e-20)
(29.992 -0.14798 -6.38179e-21)
(29.9922 -0.148619 -6.87229e-20)
(29.9924 -0.149267 3.85674e-21)
(29.9926 -0.149923 9.98451e-20)
(29.9928 -0.150587 -8.03599e-20)
(29.993 -0.151261 -1.66582e-21)
(29.9932 -0.151944 3.30156e-20)
(29.9935 -0.152635 4.09639e-20)
(29.9937 -0.153335 1.51441e-20)
(29.9939 -0.154042 -3.32115e-20)
(29.9942 -0.154758 -6.48095e-20)
(29.9944 -0.155483 5.58768e-20)
(29.9947 -0.156217 2.23672e-20)
(29.9949 -0.15696 -3.25397e-20)
(29.9952 -0.157712 -6.08286e-20)
(29.9955 -0.158473 3.97491e-20)
(29.9957 -0.159241 7.37046e-20)
(29.996 -0.160018 -3.00751e-20)
(29.9963 -0.160804 4.26998e-20)
(29.9966 -0.161598 -1.35261e-19)
(29.9969 -0.162401 3.99263e-20)
(29.9972 -0.163213 3.47442e-20)
(29.9975 -0.164032 -1.55187e-20)
(29.9978 -0.16486 -5.62769e-21)
(29.9981 -0.165696 3.38448e-20)
(29.9984 -0.166542 -1.38446e-20)
(29.9987 -0.167396 -2.98842e-20)
(29.9991 -0.168259 3.7318e-20)
(29.9994 -0.169128 -1.39688e-20)
(29.9998 -0.170002 5.2934e-20)
(30.0001 -0.170883 -4.82875e-20)
(30.0005 -0.171772 -4.88839e-23)
(30.0009 -0.172672 4.47663e-20)
(30.0012 -0.173581 2.40861e-20)
(30.0016 -0.174498 -4.76216e-20)
(30.002 -0.175421 -5.58574e-20)
(30.0024 -0.176346 3.14419e-20)
(30.0028 -0.177276 4.65249e-20)
(30.0032 -0.178211 -4.46755e-20)
(30.0036 -0.179154 -4.83326e-20)
(30.0041 -0.180106 5.19637e-20)
(30.0045 -0.181067 -3.99489e-20)
(30.0049 -0.182033 -1.55105e-20)
(30.0054 -0.183002 7.63807e-20)
(30.0058 -0.183973 -4.30638e-20)
(30.0063 -0.184945 -1.38267e-20)
(30.0067 -0.18592 -6.80566e-20)
(30.0072 -0.186901 1.14359e-19)
(30.0077 -0.187888 3.80137e-20)
(30.0082 -0.188882 3.40611e-20)
(30.0087 -0.189881 1.75695e-20)
(30.0092 -0.190882 -1.64095e-19)
(30.0097 -0.191881 1.84042e-20)
(30.0102 -0.192876 1.50185e-20)