/*--------------------------------*- C++ -*----------------------------------*\
  =========                 |
  \\      /  F ield         | OpenFOAM: The Open Source CFD Toolbox
   \\    /   O peration     | Website:  https://openfoam.org
    \\  /    A nd           | Version:  13
     \\/     M anipulation  |
\*---------------------------------------------------------------------------*/
FoamFile
{
    format      ascii;
    class       volScalarField;
    location    "0.35";
    object      p;
}
// * * * * * * * * * * * * * * * * * * * * * * * * * * * * * * * * * * * * * //

dimensions      [0 2 -2 0 0 0 0];

internalField   nonuniform List<scalar> 
68864
(
0.37168
0.370226
0.368612
0.366813
0.365004
0.36323
0.361458
0.359663
0.357852
0.356029
0.354196
0.352351
0.350493
0.348621
0.346736
0.344837
0.342925
0.340998
0.339056
0.3371
0.335128
0.33314
0.331137
0.329117
0.32708
0.325027
0.322955
0.320866
0.318758
0.316632
0.314486
0.312321
0.310135
0.307929
0.305702
0.303454
0.301184
0.298892
0.296578
0.29424
0.291879
0.289494
0.287084
0.284651
0.282192
0.279707
0.277197
0.274661
0.272098
0.269509
0.266893
0.26425
0.261579
0.25888
0.256154
0.253399
0.250617
0.247806
0.244968
0.242101
0.239206
0.236283
0.233332
0.230354
0.227348
0.224315
0.221255
0.218169
0.215057
0.21192
0.208758
0.205572
0.202363
0.199131
0.195878
0.192603
0.18931
0.185997
0.182667
0.179321
0.17596
0.172585
0.169199
0.165802
0.162396
0.158982
0.155563
0.15214
0.148715
0.14529
0.141867
0.138448
0.135036
0.131631
0.128236
0.124854
0.121487
0.118136
0.114805
0.111495
0.108209
0.104949
0.101717
0.0985159
0.0953469
0.092213
0.0891167
0.0860601
0.083045
0.080073
0.0771458
0.0742654
0.0714341
0.068654
0.065927
0.0632544
0.0606371
0.0580761
0.0555725
0.0531278
0.0507434
0.0484205
0.0461599
0.0439619
0.0418268
0.0397549
0.0377464
0.0358014
0.0339201
0.0321023
0.030348
0.028657
0.0270291
0.0254635
0.0239592
0.0225149
0.0211295
0.0198021
0.0185321
0.0173187
0.016161
0.0150573
0.0140057
0.0130044
0.0120516
0.0111459
0.010286
0.00947058
0.00869788
0.00796597
0.00727275
0.0066162
0.00599434
0.00540521
0.00484655
0.00431617
0.00381274
0.00333499
0.00288126
0.00244974
0.00203878
0.00164705
0.00127412
0.000920228
0.000589081
0.00028627
4.4451e-05
0.63659
0.634888
0.632897
0.630688
0.628478
0.626302
0.624108
0.621873
0.619607
0.617315
0.614997
0.612651
0.610275
0.607869
0.605433
0.602965
0.600466
0.597934
0.595368
0.592769
0.590135
0.587466
0.58476
0.582017
0.579236
0.576417
0.573558
0.570659
0.567718
0.564736
0.56171
0.558641
0.555528
0.552368
0.549163
0.54591
0.542609
0.539259
0.535859
0.532408
0.528905
0.52535
0.521742
0.518079
0.514361
0.510587
0.506757
0.502869
0.498923
0.494918
0.490854
0.486729
0.482544
0.478297
0.473988
0.469617
0.465183
0.460686
0.456126
0.451502
0.446814
0.442062
0.437247
0.432367
0.427424
0.422418
0.417348
0.412217
0.407023
0.401767
0.396451
0.391076
0.385642
0.380151
0.374603
0.369
0.363345
0.357637
0.35188
0.346075
0.340225
0.334331
0.328395
0.322422
0.316412
0.310369
0.304296
0.298196
0.292072
0.285928
0.279767
0.273593
0.267408
0.261219
0.255027
0.248837
0.242654
0.236481
0.230323
0.224185
0.21807
0.211983
0.205929
0.199911
0.193935
0.188005
0.182126
0.176302
0.170538
0.164836
0.159202
0.15364
0.148153
0.142747
0.137426
0.132192
0.127048
0.121999
0.117045
0.112191
0.107441
0.102796
0.0982606
0.0938347
0.0895201
0.0853181
0.0812305
0.0772586
0.0734036
0.0696663
0.0660467
0.062545
0.0591611
0.0558947
0.0527452
0.0497115
0.0467924
0.0439867
0.0412931
0.0387103
0.0362367
0.03387
0.0316077
0.0294472
0.0273855
0.0254203
0.0235488
0.0217683
0.0200759
0.0184681
0.0169414
0.0154922
0.0141171
0.0128126
0.0115756
0.0104023
0.00928819
0.00822893
0.00722069
0.0062598
0.00534247
0.00446554
0.0036254
0.00282412
0.00205388
0.00135349
0.000550508
0.952924
0.950636
0.947969
0.945068
0.942163
0.939274
0.936341
0.933345
0.930295
0.927199
0.924054
0.920857
0.917608
0.914305
0.910948
0.907536
0.904068
0.900543
0.89696
0.893318
0.889615
0.885852
0.882026
0.878136
0.874182
0.870163
0.866077
0.861923
0.857699
0.853406
0.849041
0.844603
0.840092
0.835506
0.830843
0.826103
0.821284
0.816386
0.811406
0.806344
0.801198
0.795968
0.790652
0.785249
0.779757
0.774177
0.768506
0.762744
0.756889
0.750941
0.744899
0.738762
0.732529
0.726199
0.719771
0.713246
0.706621
0.699898
0.693076
0.686153
0.679131
0.672009
0.664787
0.657465
0.650044
0.642524
0.634905
0.627188
0.619374
0.611465
0.603461
0.595363
0.587173
0.578894
0.570526
0.562072
0.553534
0.544915
0.536217
0.527444
0.518598
0.509683
0.500702
0.491659
0.482559
0.473405
0.464201
0.454954
0.445667
0.436345
0.426994
0.417618
0.408225
0.398819
0.389407
0.379995
0.370589
0.361195
0.35182
0.342471
0.333154
0.323877
0.314646
0.305468
0.296349
0.287297
0.27832
0.269423
0.260614
0.251899
0.243283
0.234775
0.22638
0.218105
0.209956
0.20194
0.19406
0.18632
0.178727
0.171285
0.164
0.156876
0.149917
0.143126
0.136503
0.130053
0.123778
0.11768
0.111762
0.106024
0.100468
0.095092
0.0898968
0.084882
0.0800474
0.0753922
0.0709146
0.0666126
0.0624838
0.0585258
0.054736
0.0511116
0.0476491
0.0443448
0.0411944
0.0381936
0.0353383
0.032624
0.0300459
0.0275992
0.0252786
0.0230785
0.0209935
0.0190179
0.017146
0.0153718
0.0136892
0.012092
0.0105741
0.00912933
0.00775161
0.00643432
0.00517232
0.003955
0.00278732
0.00160665
0.000592089
1.21772
1.21488
1.21167
1.20826
1.20485
1.20143
1.19795
1.19441
1.19079
1.18712
1.18339
1.1796
1.17574
1.17181
1.16782
1.16376
1.15962
1.15542
1.15114
1.14679
1.14236
1.13786
1.13328
1.12861
1.12386
1.11903
1.11412
1.10911
1.10402
1.09884
1.09357
1.0882
1.08273
1.07717
1.07151
1.06575
1.05989
1.05392
1.04784
1.04166
1.03537
1.02897
1.02245
1.01582
1.00907
1.00221
0.995223
0.988117
0.980889
0.973536
0.966059
0.958454
0.950721
0.94286
0.934867
0.926744
0.918487
0.910098
0.901575
0.892918
0.884125
0.875198
0.866135
0.856936
0.847602
0.838133
0.82853
0.818793
0.808924
0.798922
0.78879
0.778529
0.76814
0.757626
0.74699
0.736233
0.725359
0.71437
0.703269
0.692061
0.680749
0.669338
0.657831
0.646234
0.634551
0.622789
0.610952
0.599047
0.58708
0.575056
0.562984
0.55087
0.538721
0.526545
0.51435
0.502144
0.489934
0.477729
0.465539
0.453371
0.441235
0.42914
0.417094
0.405107
0.393188
0.381345
0.36959
0.357931
0.346377
0.334936
0.323618
0.312431
0.301383
0.290485
0.279745
0.26917
0.258767
0.248542
0.238502
0.228656
0.219009
0.209569
0.20034
0.191327
0.182533
0.173961
0.165616
0.157502
0.149622
0.141977
0.13457
0.127399
0.120465
0.113768
0.107309
0.101086
0.0950978
0.0893422
0.0838164
0.0785174
0.0734418
0.0685862
0.0639461
0.059517
0.0552936
0.0512707
0.0474427
0.0438036
0.0403473
0.0370673
0.0339567
0.0310084
0.0282151
0.0255693
0.0230635
0.0206896
0.0184398
0.0163056
0.0142786
0.0123501
0.0105114
0.00875344
0.00706745
0.00544318
0.00387295
0.0023374
0.000828837
1.48995
1.48695
1.48352
1.4799
1.47626
1.47261
1.46887
1.46504
1.46113
1.45714
1.45307
1.44892
1.44468
1.44035
1.43593
1.43142
1.42682
1.42213
1.41733
1.41244
1.40745
1.40236
1.39716
1.39185
1.38644
1.38091
1.37527
1.36952
1.36365
1.35766
1.35155
1.34531
1.33895
1.33246
1.32584
1.31909
1.3122
1.30518
1.29801
1.29071
1.28326
1.27566
1.26792
1.26003
1.25198
1.24378
1.23542
1.22691
1.21824
1.2094
1.2004
1.19123
1.1819
1.1724
1.16273
1.15289
1.14288
1.13269
1.12233
1.1118
1.10109
1.0902
1.07914
1.0679
1.05649
1.0449
1.03313
1.0212
1.00909
0.996803
0.984352
0.971732
0.958947
0.945999
0.932891
0.919626
0.906207
0.892639
0.878924
0.865068
0.851076
0.836954
0.822705
0.808337
0.793856
0.779269
0.764582
0.749803
0.73494
0.72
0.704994
0.689928
0.674813
0.659658
0.644472
0.629266
0.61405
0.598835
0.583631
0.568451
0.553304
0.538202
0.523157
0.508179
0.493281
0.478474
0.463771
0.449184
0.434723
0.4204
0.406225
0.39221
0.378366
0.364705
0.351238
0.337974
0.324922
0.31209
0.299488
0.287124
0.275009
0.26315
0.251554
0.240226
0.229171
0.218393
0.207899
0.197694
0.187781
0.178163
0.168841
0.159817
0.15109
0.142661
0.13453
0.126697
0.119159
0.111914
0.104959
0.09829
0.0919027
0.0857929
0.0799555
0.0743849
0.0690746
0.0640181
0.0592081
0.0546374
0.0502982
0.0461824
0.0422814
0.0385863
0.0350879
0.0317768
0.0286432
0.0256772
0.0228685
0.0202065
0.0176804
0.0152792
0.0129914
0.0108054
0.0087094
0.00669118
0.00473747
0.00283802
0.000950346
1.74866
1.74519
1.74127
1.73718
1.73308
1.72894
1.72471
1.72037
1.71594
1.71142
1.70681
1.7021
1.69729
1.69239
1.68738
1.68226
1.67704
1.67171
1.66626
1.66071
1.65503
1.64924
1.64332
1.63728
1.63112
1.62482
1.61839
1.61183
1.60513
1.59829
1.59131
1.58419
1.57691
1.56949
1.56191
1.55417
1.54628
1.53822
1.53
1.52162
1.51306
1.50433
1.49542
1.48633
1.47707
1.46762
1.45798
1.44816
1.43814
1.42794
1.41753
1.40693
1.39613
1.38513
1.37392
1.36251
1.35089
1.33906
1.32702
1.31478
1.30232
1.28965
1.27677
1.26367
1.25036
1.23684
1.22311
1.20917
1.19502
1.18066
1.16609
1.15133
1.13635
1.12118
1.10582
1.09026
1.07452
1.05859
1.04248
1.0262
1.00975
0.993138
0.976373
0.95946
0.942406
0.925219
0.907908
0.890482
0.872949
0.85532
0.837605
0.819813
0.801956
0.784045
0.766092
0.748109
0.730107
0.712101
0.694103
0.676125
0.658182
0.640286
0.622452
0.604693
0.587023
0.569456
0.552008
0.534692
0.517521
0.500508
0.483668
0.467013
0.450557
0.434315
0.418299
0.40252
0.38699
0.371719
0.356717
0.341997
0.32757
0.313444
0.299628
0.286129
0.272953
0.260106
0.247595
0.235426
0.223604
0.212133
0.201013
0.190247
0.179835
0.169778
0.160076
0.150729
0.141734
0.133089
0.12479
0.116833
0.109212
0.101924
0.0949614
0.0883182
0.081987
0.0759598
0.0702283
0.0647836
0.0596166
0.0547177
0.0500765
0.0456826
0.0415249
0.0375922
0.0338726
0.0303543
0.027025
0.0238718
0.0208817
0.0180412
0.0153364
0.0127528
0.0102762
0.00789004
0.00558177
0.00332205
0.00112893
2.00049
1.99688
1.99278
1.98852
1.98425
1.97992
1.97548
1.97093
1.96627
1.9615
1.95663
1.95164
1.94654
1.94132
1.93598
1.93051
1.92493
1.91921
1.91336
1.90737
1.90125
1.89499
1.88858
1.88203
1.87533
1.86848
1.86147
1.8543
1.84696
1.83947
1.8318
1.82396
1.81595
1.80775
1.79937
1.79081
1.78206
1.77311
1.76397
1.75463
1.74509
1.73534
1.72538
1.71521
1.70482
1.69421
1.68339
1.67233
1.66105
1.64954
1.63779
1.62581
1.61359
1.60113
1.58842
1.57547
1.56228
1.54883
1.53513
1.52119
1.50698
1.49253
1.47782
1.46286
1.44765
1.43218
1.41645
1.40048
1.38425
1.36778
1.35106
1.33409
1.31688
1.29944
1.28176
1.26385
1.24572
1.22736
1.20879
1.19002
1.17104
1.15187
1.13251
1.11298
1.09327
1.07341
1.05339
1.03324
1.01295
0.992553
0.972047
0.951447
0.930767
0.91002
0.88922
0.86838
0.847516
0.826641
0.805771
0.784923
0.76411
0.743351
0.722659
0.702052
0.681545
0.661156
0.640902
0.620798
0.60086
0.581105
0.561548
0.542204
0.52309
0.504223
0.485616
0.467284
0.449239
0.431493
0.41406
0.396953
0.380185
0.363767
0.347708
0.332016
0.316698
0.301763
0.287218
0.273071
0.259326
0.245989
0.233061
0.220543
0.208437
0.196745
0.185466
0.174599
0.164144
0.154096
0.144451
0.135203
0.126349
0.117882
0.109795
0.10208
0.0947299
0.0877345
0.0810844
0.0747693
0.0687785
0.063101
0.0577249
0.0526377
0.0478268
0.043279
0.0389805
0.0349175
0.0310754
0.0274394
0.0239941
0.0207235
0.0176113
0.0146402
0.0117936
0.0090499
0.00639985
0.00379014
0.0013143
2.25221
2.24821
2.24371
2.23905
2.23439
2.22965
2.22479
2.21979
2.21468
2.20946
2.20411
2.19863
2.19303
2.18729
2.18142
2.17541
2.16926
2.16297
2.15652
2.14993
2.14318
2.13627
2.1292
2.12197
2.11456
2.10699
2.09923
2.0913
2.08319
2.07488
2.06639
2.05769
2.0488
2.03971
2.03041
2.0209
2.01117
2.00122
1.99105
1.98066
1.97003
1.95917
1.94807
1.93672
1.92513
1.91329
1.9012
1.88885
1.87624
1.86336
1.85022
1.83681
1.82312
1.80916
1.79492
1.78039
1.76559
1.7505
1.73512
1.71945
1.70349
1.68725
1.67071
1.65387
1.63675
1.61933
1.60163
1.58363
1.56534
1.54677
1.52792
1.50878
1.48937
1.46968
1.44972
1.4295
1.40902
1.38828
1.3673
1.34608
1.32463
1.30295
1.28106
1.25897
1.23668
1.2142
1.19155
1.16875
1.14579
1.1227
1.09948
1.07616
1.05275
1.02926
1.0057
0.982103
0.958474
0.934832
0.911196
0.887583
0.864011
0.840498
0.817062
0.793721
0.770495
0.747402
0.724462
0.701693
0.679113
0.656739
0.634591
0.612685
0.591041
0.569676
0.548607
0.52785
0.507418
0.487326
0.46759
0.448224
0.429243
0.410658
0.392481
0.37472
0.357384
0.340481
0.324022
0.308014
0.292463
0.277373
0.262748
0.248588
0.234895
0.221671
0.208916
0.19663
0.18481
0.173452
0.162551
0.152102
0.142099
0.132535
0.123402
0.114693
0.106397
0.0985044
0.0910036
0.0838833
0.0771315
0.0707354
0.0646817
0.0589563
0.0535448
0.048432
0.0436026
0.0390406
0.0347295
0.0306524
0.0267917
0.023129
0.0196457
0.0163218
0.0131384
0.0100687
0.00710868
0.00417659
0.00146892
2.49637
2.49217
2.48741
2.48253
2.47764
2.47266
2.46753
2.46226
2.45687
2.45135
2.44568
2.43988
2.43394
2.42784
2.4216
2.4152
2.40864
2.40192
2.39504
2.38798
2.38075
2.37335
2.36576
2.35798
2.35002
2.34186
2.3335
2.32494
2.31617
2.30719
2.29799
2.28857
2.27893
2.26905
2.25894
2.24859
2.238
2.22715
2.21606
2.2047
2.19309
2.1812
2.16905
2.15662
2.1439
2.13091
2.11762
2.10404
2.09017
2.07599
2.06151
2.04672
2.03162
2.0162
2.00046
1.98441
1.96803
1.95132
1.93429
1.91693
1.89923
1.88121
1.86285
1.84416
1.82513
1.80577
1.78608
1.76606
1.74571
1.72503
1.70403
1.68271
1.66107
1.63912
1.61687
1.59431
1.57146
1.54832
1.52489
1.5012
1.47724
1.45303
1.42858
1.40389
1.37899
1.35387
1.32856
1.30307
1.27741
1.2516
1.22564
1.19957
1.1734
1.14714
1.12081
1.09443
1.06801
1.04159
1.01517
0.988777
0.962434
0.936158
0.909971
0.883893
0.857945
0.832148
0.806525
0.781096
0.755881
0.7309
0.706172
0.681719
0.657561
0.633718
0.610208
0.587049
0.564255
0.541845
0.519834
0.498238
0.477074
0.456356
0.436093
0.416297
0.396977
0.378144
0.359806
0.341973
0.324652
0.307847
0.29156
0.275794
0.260551
0.245831
0.231636
0.217965
0.204814
0.192179
0.180055
0.168436
0.157314
0.146684
0.136535
0.12686
0.117646
0.108882
0.100556
0.0926558
0.0851668
0.0780753
0.0713663
0.0650243
0.0590329
0.0533755
0.0480347
0.0429927
0.0382311
0.0337309
0.0294723
0.0254349
0.0215976
0.0179375
0.0144343
0.0110546
0.00780256
0.00455883
0.00164504
2.74401
2.73945
2.73431
2.72905
2.72379
2.71843
2.7129
2.70722
2.7014
2.69544
2.68932
2.68305
2.67662
2.67003
2.66327
2.65634
2.64923
2.64195
2.63448
2.62682
2.61897
2.61093
2.60268
2.59423
2.58556
2.57668
2.56758
2.55825
2.54869
2.5389
2.52886
2.51858
2.50805
2.49726
2.48621
2.4749
2.46331
2.45144
2.43929
2.42686
2.41413
2.4011
2.38777
2.37413
2.36018
2.34591
2.33132
2.3164
2.30115
2.28556
2.26964
2.25336
2.23674
2.21977
2.20244
2.18476
2.16671
2.14829
2.12951
2.11037
2.09085
2.07096
2.0507
2.03007
2.00906
1.98768
1.96594
1.94382
1.92134
1.89849
1.87528
1.85172
1.8278
1.80353
1.77893
1.75399
1.72872
1.70313
1.67723
1.65103
1.62454
1.59777
1.57073
1.54344
1.5159
1.48813
1.46015
1.43197
1.40361
1.37508
1.3464
1.3176
1.28868
1.25967
1.23059
1.20146
1.1723
1.14313
1.11398
1.08486
1.0558
1.02682
0.997943
0.969194
0.940595
0.912169
0.883942
0.855934
0.828169
0.800668
0.773453
0.746547
0.719972
0.69375
0.6679
0.642441
0.617392
0.592768
0.568589
0.544873
0.521636
0.498893
0.476656
0.454935
0.433741
0.413084
0.392977
0.373428
0.354443
0.336027
0.318183
0.300913
0.284218
0.268101
0.252562
0.237599
0.223209
0.209386
0.196125
0.183419
0.17126
0.159641
0.148552
0.137982
0.12792
0.118352
0.109265
0.100646
0.0924782
0.0847473
0.0774365
0.0705286
0.0640059
0.0578498
0.0520413
0.0465609
0.0413884
0.0365026
0.031882
0.0275038
0.0233448
0.0193796
0.0155862
0.0119247
0.00840886
0.0048772
0.00179938
2.98696
2.98213
2.97667
2.9711
2.96554
2.95987
2.95401
2.94798
2.9418
2.93546
2.92896
2.92228
2.91543
2.90841
2.9012
2.8938
2.88621
2.87843
2.87044
2.86224
2.85384
2.84521
2.83637
2.82729
2.81798
2.80844
2.79865
2.78861
2.77831
2.76776
2.75694
2.74584
2.73447
2.72281
2.71087
2.69862
2.68608
2.67323
2.66006
2.64658
2.63277
2.61863
2.60415
2.58933
2.57416
2.55864
2.54276
2.52652
2.50991
2.49292
2.47555
2.45781
2.43967
2.42114
2.40222
2.3829
2.36317
2.34304
2.32251
2.30156
2.28021
2.25844
2.23626
2.21366
2.19065
2.16724
2.14341
2.11917
2.09452
2.06947
2.04403
2.01819
1.99196
1.96534
1.93835
1.911
1.88328
1.85521
1.8268
1.79806
1.76901
1.73964
1.70999
1.68005
1.64985
1.61941
1.58873
1.55784
1.52676
1.4955
1.46408
1.43253
1.40086
1.36909
1.33726
1.30538
1.27347
1.24157
1.20968
1.17785
1.14608
1.11442
1.08288
1.05148
1.02026
0.989238
0.958442
0.927895
0.897622
0.867646
0.837992
0.808684
0.779745
0.7512
0.723068
0.695371
0.668127
0.641354
0.615074
0.589304
0.564062
0.539363
0.515219
0.491643
0.468645
0.446237
0.42443
0.403234
0.382655
0.362697
0.343364
0.324656
0.306576
0.289126
0.272306
0.256114
0.240544
0.225593
0.211251
0.197513
0.184371
0.171815
0.159835
0.148419
0.137554
0.127226
0.117421
0.108123
0.0993154
0.090982
0.0831046
0.0756646
0.0686425
0.0620183
0.0557715
0.0498806
0.0443237
0.0390779
0.0341197
0.0294242
0.0249664
0.0207179
0.0166558
0.0127331
0.00897483
0.00517325
0.00195662
3.23413
3.22893
3.22305
3.2171
3.21116
3.20508
3.19879
3.19233
3.18569
3.17889
3.17191
3.16474
3.15738
3.14982
3.14207
3.1341
3.12593
3.11754
3.10894
3.1001
3.09103
3.08172
3.07217
3.06237
3.05232
3.042
3.03141
3.02055
3.00941
2.99798
2.98626
2.97424
2.96191
2.94928
2.93632
2.92304
2.90942
2.89547
2.88117
2.86652
2.85151
2.83614
2.8204
2.80427
2.78777
2.77088
2.75359
2.7359
2.71781
2.6993
2.68038
2.66103
2.64126
2.62106
2.60042
2.57935
2.55783
2.53587
2.51346
2.4906
2.46729
2.44353
2.41931
2.39464
2.36952
2.34395
2.31793
2.29146
2.26455
2.2372
2.20942
2.1812
2.15256
2.12351
2.09405
2.06419
2.03394
2.00331
1.97231
1.94096
1.90927
1.87725
1.84491
1.81228
1.77937
1.7462
1.71279
1.67915
1.64531
1.61129
1.57711
1.54279
1.50836
1.47383
1.43925
1.40462
1.36998
1.33535
1.30076
1.26623
1.2318
1.19749
1.16332
1.12933
1.09554
1.06198
1.02867
0.995653
0.962943
0.930568
0.898553
0.866925
0.835708
0.804928
0.774607
0.744765
0.715423
0.6866
0.658318
0.630595
0.603451
0.5769
0.550955
0.525628
0.50093
0.476874
0.453471
0.430731
0.408659
0.38726
0.366536
0.346489
0.32712
0.308431
0.290421
0.273088
0.256427
0.24043
0.22509
0.210399
0.196349
0.182929
0.170129
0.157934
0.146332
0.135306
0.124841
0.114921
0.105527
0.0966424
0.0882469
0.0803205
0.0728426
0.0657916
0.0591451
0.0528805
0.046974
0.0414011
0.0361364
0.0311531
0.0264245
0.0219195
0.0176144
0.0134549
0.00947855
0.00542857
0.00210204
3.47961
3.47405
3.46779
3.46146
3.45514
3.44867
3.44198
3.43509
3.42802
3.42076
3.41331
3.40566
3.39779
3.38972
3.38142
3.37291
3.36416
3.35518
3.34595
3.33648
3.32676
3.31677
3.30652
3.29599
3.28519
3.2741
3.26271
3.25103
3.23904
3.22673
3.21411
3.20115
3.18786
3.17423
3.16025
3.14591
3.13121
3.11614
3.10069
3.08485
3.06862
3.05199
3.03495
3.0175
2.99963
2.98134
2.96261
2.94344
2.92383
2.90376
2.88324
2.86225
2.8408
2.81888
2.79648
2.7736
2.75024
2.72639
2.70205
2.67722
2.6519
2.62608
2.59978
2.57297
2.54568
2.51789
2.48962
2.46086
2.43162
2.40191
2.37172
2.34107
2.30996
2.27841
2.24641
2.21399
2.18115
2.1479
2.11427
2.08025
2.04587
2.01114
1.97609
1.94072
1.90506
1.86913
1.83294
1.79653
1.75991
1.72311
1.68614
1.64905
1.61184
1.57455
1.53721
1.49984
1.46247
1.42514
1.38786
1.35067
1.31359
1.27666
1.23991
1.20336
1.16704
1.13099
1.09524
1.0598
1.02472
0.990008
0.9557
0.921824
0.888404
0.855467
0.823035
0.79113
0.759774
0.728986
0.698788
0.669202
0.640244
0.61193
0.584273
0.557285
0.530978
0.505364
0.480455
0.456259
0.432783
0.410029
0.387999
0.366696
0.346119
0.326271
0.307151
0.288753
0.271073
0.254103
0.237834
0.222258
0.207364
0.193144
0.179582
0.166667
0.154382
0.142711
0.131637
0.121142
0.111207
0.101814
0.0929416
0.084568
0.0766711
0.069228
0.0622151
0.0556081
0.0493817
0.0435097
0.0379651
0.0327196
0.0277443
0.0230061
0.0184805
0.0141057
0.00993289
0.00565369
0.00224158
3.72943
3.72347
3.71674
3.70998
3.70323
3.69631
3.68914
3.68176
3.67418
3.66641
3.65842
3.65021
3.64177
3.6331
3.6242
3.61505
3.60565
3.59599
3.58607
3.57588
3.56542
3.55467
3.54363
3.53229
3.52065
3.50869
3.49642
3.48382
3.47088
3.4576
3.44397
3.42998
3.41562
3.4009
3.38579
3.37029
3.35439
3.33809
3.32137
3.30423
3.28667
3.26867
3.25022
3.23133
3.21197
3.19215
3.17186
3.15108
3.12983
3.10808
3.08583
3.06308
3.03982
3.01604
2.99175
2.96694
2.9416
2.91574
2.88934
2.86241
2.83495
2.80695
2.77842
2.74935
2.71976
2.68963
2.65898
2.62781
2.59612
2.56391
2.53121
2.49801
2.46432
2.43015
2.39551
2.36042
2.32489
2.28893
2.25255
2.21578
2.17863
2.14112
2.10326
2.06508
2.02661
1.98785
1.94884
1.9096
1.87015
1.83053
1.79075
1.75085
1.71085
1.67078
1.63068
1.59057
1.55048
1.51044
1.47049
1.43065
1.39096
1.35145
1.31215
1.27309
1.23431
1.19582
1.15768
1.11989
1.0825
1.04553
1.00901
0.972968
0.937431
0.902426
0.867976
0.834103
0.800829
0.768175
0.736162
0.704813
0.674144
0.644171
0.614906
0.586361
0.558548
0.531479
0.505166
0.479616
0.454834
0.430824
0.407586
0.385121
0.363431
0.342514
0.322371
0.302995
0.28438
0.266518
0.249398
0.233011
0.217347
0.202395
0.18814
0.174567
0.16166
0.149401
0.137773
0.126756
0.116331
0.106476
0.0971711
0.088392
0.0801157
0.0723179
0.0649737
0.0580573
0.051542
0.0454003
0.0396036
0.0341218
0.0289248
0.0239769
0.0192534
0.0146848
0.0103368
0.00584735
0.00237358
3.9799
3.97352
3.96632
3.9591
3.95191
3.94452
3.93686
3.92897
3.92088
3.91257
3.90402
3.89523
3.8862
3.87692
3.86738
3.85758
3.8475
3.83715
3.8265
3.81557
3.80434
3.79279
3.78093
3.76875
3.75623
3.74338
3.73017
3.71661
3.70269
3.68839
3.67371
3.65864
3.64318
3.6273
3.61101
3.5943
3.57715
3.55956
3.54153
3.52303
3.50407
3.48463
3.46471
3.4443
3.42338
3.40197
3.38004
3.35759
3.33461
3.31109
3.28704
3.26244
3.23729
3.21158
3.18531
3.15847
3.13107
3.1031
3.07455
3.04543
3.01573
2.98545
2.95461
2.92318
2.89119
2.85863
2.8255
2.79182
2.75759
2.72281
2.68749
2.65164
2.61528
2.57841
2.54105
2.50321
2.46491
2.42616
2.38697
2.34738
2.30739
2.26703
2.22631
2.18527
2.14393
2.1023
2.06043
2.01832
1.97602
1.93355
1.89094
1.84822
1.80542
1.76257
1.71971
1.67686
1.63406
1.59135
1.54875
1.5063
1.46403
1.42198
1.38018
1.33867
1.29746
1.25661
1.21613
1.17607
1.13645
1.0973
1.05865
1.02052
0.982955
0.945972
0.909596
0.873849
0.838753
0.804331
0.770603
0.73759
0.705311
0.673779
0.643006
0.613004
0.583785
0.555361
0.527741
0.500934
0.474943
0.44977
0.425416
0.40188
0.379163
0.357265
0.336182
0.315909
0.296438
0.277759
0.259861
0.242734
0.226368
0.210749
0.195862
0.181692
0.16822
0.155428
0.143296
0.131806
0.120936
0.110665
0.100968
0.0918226
0.0832037
0.0750859
0.067443
0.0602479
0.0534728
0.0470885
0.0410653
0.0353715
0.0299758
0.0248401
0.0199396
0.0151974
0.0106942
0.00601226
0.00249881
4.23484
4.22799
4.22026
4.21254
4.20485
4.19694
4.18874
4.18029
4.17162
4.16271
4.15354
4.14412
4.13443
4.12447
4.11423
4.1037
4.09288
4.08175
4.07032
4.05856
4.04648
4.03406
4.02131
4.00819
3.99472
3.98088
3.96666
3.95205
3.93705
3.92164
3.90582
3.88957
3.87289
3.85577
3.83819
3.82016
3.80165
3.78267
3.76319
3.74322
3.72275
3.70175
3.68024
3.65819
3.6356
3.61246
3.58876
3.5645
3.53967
3.51426
3.48826
3.46168
3.43449
3.40671
3.37832
3.34933
3.31972
3.2895
3.25866
3.2272
3.19512
3.16243
3.12912
3.0952
3.06067
3.02554
2.9898
2.95348
2.91656
2.87907
2.84101
2.8024
2.76324
2.72355
2.68335
2.64265
2.60146
2.55981
2.51772
2.4752
2.43228
2.38898
2.34533
2.30135
2.25707
2.21251
2.16771
2.1227
2.0775
2.03214
1.98666
1.9411
1.89548
1.84984
1.80421
1.75863
1.71314
1.66776
1.62254
1.57751
1.5327
1.48815
1.4439
1.39997
1.35641
1.31325
1.27052
1.22825
1.18647
1.14522
1.10452
1.06441
1.0249
0.986035
0.94783
0.910308
0.873492
0.837403
0.802063
0.767492
0.733707
0.70072
0.668545
0.637191
0.606669
0.576991
0.548168
0.520204
0.493102
0.466863
0.441487
0.416973
0.39332
0.370528
0.348592
0.327505
0.307258
0.287839
0.269237
0.251443
0.234443
0.218223
0.202767
0.188059
0.174079
0.160807
0.148225
0.13631
0.125041
0.114396
0.104348
0.0948752
0.0859498
0.0775459
0.0696361
0.0621923
0.0551852
0.0485847
0.0423596
0.0364772
0.0309046
0.0256021
0.0205446
0.0156475
0.0110081
0.00615043
0.00261762
4.49209
4.48474
4.47645
4.4682
4.45999
4.45153
4.44275
4.43371
4.42443
4.41488
4.40507
4.39497
4.38459
4.37391
4.36292
4.35163
4.34002
4.32807
4.3158
4.30317
4.2902
4.27685
4.26314
4.24905
4.23456
4.21967
4.20437
4.18866
4.17251
4.15592
4.13889
4.12139
4.10342
4.08498
4.06604
4.0466
4.02666
4.00619
3.9852
3.96366
3.94158
3.91894
3.89573
3.87195
3.84758
3.82261
3.79705
3.77087
3.74408
3.71666
3.68861
3.65993
3.63061
3.60063
3.57001
3.53874
3.5068
3.47421
3.44096
3.40704
3.37247
3.33724
3.30135
3.26481
3.22762
3.18979
3.15133
3.11223
3.07253
3.03221
2.9913
2.94981
2.90774
2.86513
2.82198
2.77832
2.73416
2.68952
2.64443
2.59891
2.55299
2.50669
2.46003
2.41305
2.36578
2.31825
2.27048
2.22252
2.17439
2.12612
2.07777
2.02935
1.98091
1.93248
1.8841
1.8358
1.78763
1.73962
1.69181
1.64423
1.59693
1.54993
1.50328
1.45702
1.41117
1.36577
1.32086
1.27646
1.23262
1.18935
1.1467
1.10469
1.06334
1.02269
0.982754
0.94356
0.905127
0.867476
0.830629
0.794605
0.759419
0.725084
0.69161
0.659007
0.627286
0.596458
0.56653
0.537508
0.509392
0.482183
0.455877
0.430475
0.405975
0.382375
0.359668
0.337847
0.3169
0.296816
0.277583
0.259189
0.241621
0.224863
0.208899
0.19371
0.179276
0.165577
0.152591
0.140299
0.128675
0.117696
0.107337
0.0975727
0.0883751
0.0797172
0.0715707
0.0639062
0.0566936
0.0499015
0.0434977
0.0374484
0.0317196
0.0262695
0.0210736
0.0160396
0.0112815
0.00626399
0.00273033
4.75398
4.74609
4.7372
4.72837
4.71958
4.71052
4.70112
4.69143
4.68148
4.67125
4.66072
4.64989
4.63875
4.62729
4.6155
4.60337
4.5909
4.57807
4.56487
4.55131
4.53735
4.52301
4.50826
4.4931
4.47751
4.46149
4.44503
4.42811
4.41072
4.39286
4.37451
4.35566
4.3363
4.31642
4.29602
4.27507
4.25357
4.2315
4.20887
4.18565
4.16184
4.13742
4.11239
4.08674
4.06045
4.03353
4.00596
3.97773
3.94883
3.91927
3.88902
3.8581
3.82648
3.79417
3.76116
3.72745
3.69304
3.65792
3.6221
3.58558
3.54836
3.51043
3.47181
3.4325
3.3925
3.35183
3.31049
3.26849
3.22585
3.18257
3.13866
3.09416
3.04907
3.0034
2.95719
2.91045
2.8632
2.81547
2.76728
2.71867
2.66965
2.62025
2.57052
2.52047
2.47014
2.41957
2.36879
2.31783
2.26674
2.21554
2.16428
2.113
2.06173
2.01051
1.95938
1.90838
1.85756
1.80694
1.75657
1.7065
1.65675
1.60736
1.55837
1.50983
1.46176
1.4142
1.36719
1.32075
1.27492
1.22974
1.18522
1.14141
1.09832
1.05598
1.01442
0.973659
0.933714
0.894608
0.85636
0.818989
0.782509
0.746931
0.712264
0.678517
0.6457
0.613822
0.58289
0.552908
0.523875
0.495788
0.468645
0.442444
0.417183
0.392859
0.369463
0.346986
0.325415
0.304739
0.284944
0.266018
0.247945
0.230711
0.214296
0.198681
0.183846
0.169769
0.156428
0.143801
0.131865
0.120592
0.109959
0.0999375
0.0905002
0.0816187
0.0732638
0.0654052
0.0580119
0.0510514
0.0444907
0.0382948
0.032429
0.0268495
0.0215324
0.0163779
0.0115175
0.0063551
0.00283734
5.01933
5.01086
5.00133
4.99188
4.98248
4.97279
4.96272
4.95233
4.94167
4.93071
4.91943
4.90781
4.89586
4.88357
4.87092
4.8579
4.84451
4.83074
4.81657
4.80199
4.78701
4.77159
4.75574
4.73944
4.72268
4.70545
4.68774
4.66953
4.65082
4.6316
4.61185
4.59156
4.57072
4.54932
4.52734
4.50478
4.48162
4.45785
4.43347
4.40845
4.3828
4.35649
4.32952
4.30188
4.27356
4.24455
4.21485
4.18443
4.1533
4.12145
4.08888
4.05557
4.02152
3.98673
3.9512
3.91492
3.87788
3.8401
3.80157
3.7623
3.72228
3.68152
3.64002
3.5978
3.55486
3.5112
3.46685
3.42181
3.37609
3.32972
3.2827
3.23506
3.18682
3.13799
3.0886
3.03868
2.98824
2.93733
2.88595
2.83415
2.78196
2.72941
2.67653
2.62335
2.56992
2.51627
2.46243
2.40846
2.35438
2.30023
2.24606
2.19191
2.13781
2.08382
2.02997
1.9763
1.92285
1.86967
1.8168
1.76427
1.71213
1.66042
1.60917
1.55842
1.50821
1.45857
1.40954
1.36115
1.31344
1.26643
1.22015
1.17463
1.12991
1.08599
1.04291
1.00069
0.95934
0.918885
0.879345
0.840735
0.803068
0.766353
0.730597
0.695809
0.661998
0.629172
0.597335
0.566489
0.536632
0.507759
0.479868
0.452955
0.427018
0.402051
0.378044
0.354986
0.332865
0.311666
0.291376
0.271981
0.253466
0.235813
0.219003
0.203015
0.187828
0.173421
0.159769
0.146851
0.13464
0.123111
0.112238
0.101992
0.092346
0.0832695
0.074733
0.0667052
0.0591542
0.052047
0.0453496
0.039026
0.0330409
0.0273487
0.0219265
0.0166666
0.0117194
0.00642589
0.00293907
5.28955
5.28045
5.27022
5.26011
5.25005
5.23967
5.22887
5.21775
5.20632
5.19457
5.18247
5.17001
5.15719
5.14399
5.13042
5.11644
5.10207
5.08727
5.07205
5.05639
5.04028
5.02371
5.00667
4.98914
4.97112
4.95259
4.93354
4.91395
4.89382
4.87313
4.85187
4.83003
4.80759
4.78455
4.76088
4.73659
4.71165
4.68605
4.65979
4.63284
4.60521
4.57688
4.54783
4.51806
4.48756
4.45632
4.42432
4.39157
4.35806
4.32377
4.2887
4.25285
4.21621
4.17878
4.14056
4.10154
4.06173
4.02112
3.97971
3.93752
3.89454
3.85078
3.80625
3.76095
3.7149
3.66811
3.6206
3.57236
3.52343
3.47382
3.42355
3.37264
3.32111
3.269
3.21631
3.16309
3.10936
3.05515
3.0005
2.94543
2.88998
2.83419
2.7781
2.72174
2.66515
2.60837
2.55145
2.49442
2.43733
2.38022
2.32313
2.26611
2.20921
2.15245
2.0959
2.03959
1.98356
1.92786
1.87253
1.81761
1.76315
1.70917
1.65573
1.60285
1.55058
1.49896
1.44801
1.39776
1.34826
1.29952
1.25158
1.20447
1.15821
1.11282
1.06833
1.02475
0.982105
0.940411
0.899686
0.859944
0.821195
0.783448
0.746707
0.710981
0.676276
0.642599
0.609954
0.578338
0.547748
0.518179
0.489627
0.462086
0.435554
0.410021
0.385479
0.361914
0.339311
0.317657
0.296936
0.277134
0.258234
0.240218
0.223065
0.206754
0.191263
0.176569
0.162648
0.149477
0.13703
0.12528
0.1142
0.103761
0.0939337
0.0846888
0.0759954
0.0678216
0.0601346
0.0529007
0.0460853
0.0396515
0.0335633
0.0277738
0.0222611
0.01691
0.01189
0.00647828
0.00303597
5.56398
5.55423
5.54326
5.53244
5.52168
5.51056
5.499
5.48708
5.47484
5.46224
5.44927
5.43591
5.42216
5.40801
5.39344
5.37845
5.36302
5.34713
5.33079
5.31397
5.29667
5.27887
5.26056
5.24172
5.22235
5.20242
5.18194
5.16088
5.13922
5.11697
5.0941
5.0706
5.04646
5.02166
4.9962
4.97005
4.94321
4.91566
4.88739
4.85839
4.82864
4.79815
4.76688
4.73484
4.70202
4.6684
4.63397
4.59874
4.56268
4.5258
4.48809
4.44954
4.41015
4.36992
4.32885
4.28693
4.24417
4.20057
4.15613
4.11086
4.06476
4.01784
3.97012
3.9216
3.87229
3.82221
3.77138
3.71981
3.66752
3.61454
3.56088
3.50657
3.45165
3.39612
3.34003
3.28341
3.22628
3.16869
3.11067
3.05225
2.99348
2.93439
2.87503
2.81543
2.75564
2.69571
2.63567
2.57558
2.51547
2.4554
2.3954
2.33553
2.27584
2.21635
2.15714