/*--------------------------------*- C++ -*----------------------------------*\
  =========                 |
  \\      /  F ield         | OpenFOAM: The Open Source CFD Toolbox
   \\    /   O peration     | Website:  https://openfoam.org
    \\  /    A nd           | Version:  13
     \\/     M anipulation  |
\*---------------------------------------------------------------------------*/
FoamFile
{
    format      ascii;
    class       surfaceScalarField;
    location    "0.35";
    object      phi;
}
// * * * * * * * * * * * * * * * * * * * * * * * * * * * * * * * * * * * * * //

dimensions      [0 3 -1 0 0 0 0];

internalField   nonuniform List<scalar> 
137229
(
14.3657
-0.000428547
-14.3685
14.3628
-0.000437865
14.3599
-0.000447525
14.357
-0.0004574
14.354
-0.000467558
14.3509
-0.000478035
14.3477
-0.000488773
14.3445
-0.000499863
14.3413
-0.000511253
14.3379
-0.000522981
14.3345
-0.000535022
14.3311
-0.000547471
14.3276
-0.000560215
14.324
-0.000573352
14.3203
-0.000586892
14.3166
-0.000600757
14.3128
-0.000615081
14.3089
-0.000629817
14.3049
-0.00064495
14.3009
-0.000660553
14.2967
-0.000676576
14.2925
-0.000693063
14.2883
-0.000710033
14.2839
-0.000727477
14.2794
-0.000745417
14.2749
-0.000763877
14.2703
-0.000782875
14.2655
-0.000802402
14.2607
-0.000822479
14.2558
-0.000843128
14.2508
-0.000864318
14.2457
-0.000886166
14.2405
-0.000908583
14.2351
-0.000931598
14.2297
-0.000955331
14.2242
-0.000979631
14.2185
-0.00100465
14.2128
-0.00103035
14.2069
-0.0010567
14.2009
-0.0010838
14.1948
-0.00111159
14.1886
-0.00114017
14.1822
-0.0011695
14.1758
-0.00119954
14.1692
-0.00123044
14.1624
-0.00126208
14.1555
-0.00129455
14.1485
-0.00132785
14.1414
-0.00136203
14.1341
-0.00139699
14.1266
-0.00143285
14.119
-0.00146957
14.1113
-0.0015072
14.1033
-0.00154571
14.0953
-0.00158515
14.087
-0.00162551
14.0786
-0.00166679
14.0701
-0.00170902
14.0613
-0.00175215
14.0524
-0.00179624
14.0433
-0.00184133
14.034
-0.00188732
14.0246
-0.00193437
14.0149
-0.0019823
14.005
-0.0020312
13.995
-0.00208109
13.9847
-0.0021319
13.9742
-0.00218369
13.9635
-0.00223646
13.9526
-0.00229016
13.9415
-0.00234479
13.9301
-0.00240027
13.9186
-0.00245666
13.9067
-0.00251397
13.8947
-0.00257213
13.8823
-0.00263116
13.8698
-0.00269107
13.857
-0.00275169
13.8439
-0.00281306
13.8305
-0.00287512
13.8169
-0.00293783
13.803
-0.00300118
13.7888
-0.00306518
13.7743
-0.00312975
13.7595
-0.00319486
13.7444
-0.00326039
13.729
-0.00332628
13.7133
-0.00339239
13.6972
-0.00345877
13.6809
-0.00352524
13.6642
-0.00359186
13.6471
-0.00365854
13.6297
-0.0037251
13.6119
-0.00379152
13.5938
-0.00385759
13.5753
-0.00392329
13.5564
-0.00398855
13.5371
-0.00405328
13.5174
-0.0041172
13.4973
-0.00418014
13.4768
-0.00424199
13.4558
-0.00430273
13.4344
-0.00436242
13.4126
-0.00442101
13.3903
-0.00447807
13.3676
-0.00453313
13.3443
-0.00458563
13.3206
-0.00463566
13.2964
-0.00468367
13.2717
-0.00473009
13.2465
-0.00477494
13.2207
-0.00481728
13.1944
-0.00485568
13.1676
-0.00488917
13.1402
-0.00491791
13.1122
-0.00494331
13.0836
-0.00496672
13.0544
-0.00498847
13.0246
-0.00500698
12.9942
-0.00501953
12.9631
-0.00502403
12.9314
-0.00502056
12.899
-0.0050113
12.8659
-0.00499904
12.8322
-0.00498495
12.7977
-0.00496741
12.7624
-0.00494269
12.7264
-0.00490738
12.6897
-0.00486057
12.6522
-0.00480428
12.6138
-0.00474207
12.5747
-0.0046762
12.5347
-0.00460612
12.4939
-0.00452871
12.4522
-0.00443999
12.4096
-0.00433783
12.3661
-0.00422274
12.3216
-0.00409728
12.2762
-0.00396377
12.2298
-0.00382293
12.1825
-0.0036733
12.1341
-0.00351223
12.0846
-0.00333746
12.0341
-0.0031482
11.9825
-0.00294506
11.9298
-0.00272914
11.8759
-0.00250105
11.8209
-0.00226043
11.7647
-0.00200618
11.7073
-0.00173698
11.6486
-0.0014519
11.5886
-0.00115052
11.5274
-0.000832777
11.4648
-0.000498573
11.4008
-0.00014757
11.3355
0.000220832
11.2687
0.000607276
11.2004
0.00101266
11.1307
0.00143748
11.0594
0.00188256
10.9866
0.00234831
10.9122
0.00283533
10.8361
0.00334418
10.7584
0.00387562
10.679
0.00443048
10.5978
0.00501023
0.00561517
13.6793
0.00212975
-13.6819
13.6767
0.00217073
13.674
0.00221249
13.6713
0.00225505
13.6686
0.00229841
13.6657
0.00234258
13.6629
0.00238758
13.6599
0.00243342
13.6569
0.00248013
13.6539
0.00252767
13.6508
0.00257612
13.6476
0.00262549
13.6444
0.00267579
13.6411
0.00272699
13.6377
0.00277916
13.6343
0.00283232
13.6308
0.00288647
13.6272
0.00294161
13.6236
0.0029978
13.6198
0.00305504
13.6161
0.00311333
13.6122
0.00317271
13.6082
0.00323323
13.6042
0.00329483
13.6001
0.00335767
13.5959
0.00342158
13.5917
0.00348677
13.5873
0.00355314
13.5829
0.00362076
13.5783
0.00368965
13.5737
0.00375986
13.569
0.00383138
13.5642
0.00390425
13.5593
0.00397852
13.5543
0.00405415
13.5491
0.00413122
13.5439
0.00420981
13.5386
0.00428986
13.5332
0.00437145
13.5276
0.00445462
13.522
0.00453935
13.5162
0.00462572
13.5103
0.00471378
13.5043
0.00480354
13.4982
0.00489505
13.492
0.00498836
13.4856
0.0050835
13.4791
0.00518047
13.4724
0.0052794
13.4657
0.00538028
13.4587
0.00548317
13.4517
0.00558813
13.4445
0.00569524
13.4371
0.00580448
13.4296
0.00591597
13.422
0.00602973
13.4142
0.00614581
13.4062
0.00626436
13.3981
0.00638534
13.3898
0.00650886
13.3813
0.00663505
13.3726
0.00676388
13.3638
0.00689549
13.3548
0.00702992
13.3456
0.0071673
13.3362
0.00730768
13.3266
0.00745116
13.3168
0.00759786
13.3068
0.00774786
13.2967
0.00790123
13.2863
0.00805811
13.2756
0.00821863
13.2648
0.00838283
13.2537
0.00855089
13.2424
0.0087229
13.2309
0.00889902
13.2191
0.00907934
13.2071
0.00926408
13.1948
0.00945338
13.1823
0.00964733
13.1695
0.00984614
13.1565
0.0100499
13.1432
0.0102587
13.1296
0.0104729
13.1157
0.0106926
13.1015
0.010918
13.087
0.0111494
13.0722
0.011387
13.0572
0.0116309
13.0417
0.0118813
13.026
0.0121384
13.01
0.0124024
12.9936
0.0126738
12.9768
0.0129527
12.9597
0.0132394
12.9423
0.0135342
12.9244
0.0138372
12.9062
0.0141488
12.8876
0.0144693
12.8687
0.0147992
12.8493
0.0151388
12.8295
0.0154883
12.8093
0.0158479
12.7886
0.0162177
12.7676
0.0165984
12.746
0.0169906
12.7241
0.017395
12.7016
0.0178121
12.6787
0.0182414
12.6553
0.0186829
12.6314
0.0191367
12.6069
0.019604
12.582
0.0200866
12.5565
0.0205855
12.5305
0.0211009
12.5039
0.0216316
12.4768
0.0221764
12.4491
0.0227354
12.4208
0.0233108
12.3918
0.0239055
12.3623
0.0245219
12.3321
0.0251602
12.3013
0.025818
12.2698
0.0264931
12.2376
0.0271845
12.2047
0.0278947
12.1712
0.0286279
12.1369
0.0293879
12.1018
0.0301758
12.066
0.0309896
12.0295
0.0318259
11.9921
0.0326828
11.954
0.0335616
11.915
0.0344664
11.8751
0.0354016
11.8344
0.0363697
11.7928
0.0373701
11.7503
0.0384008
11.7069
0.0394594
11.6625
0.0405461
11.6172
0.0416631
11.5709
0.0428138
11.5235
0.0440011
11.4752
0.0452259
11.4257
0.0464881
11.3752
0.047787
11.3236
0.0491225
11.2708
0.0504956
11.2169
0.0519084
11.1618
0.0533626
11.1055
0.05486
11.0479
0.0564014
10.9891
0.0579874
10.929
0.0596189
10.8676
0.0612968
10.8048
0.0630226
10.7406
0.0647977
10.675
0.0666235
10.6079
0.0685015
10.5393
0.0704332
10.4693
0.0724197
10.3976
0.0744625
10.3244
0.0765629
10.2496
0.0787228
10.1731
0.0809437
10.0948
0.0832292
0.0855769
13.0211
0.00446572
-13.0234
13.0187
0.00455339
13.0163
0.00464279
13.0138
0.00473398
13.0113
0.004827
13.0087
0.00492185
13.006
0.0050186
13.0034
0.00511733
13.0006
0.00521797
12.9978
0.00532063
12.995
0.00542535
12.9921
0.00553216
12.9891
0.00564108
12.9861
0.00575223
12.983
0.00586556
12.9799
0.00598116
12.9766
0.00609912
12.9734
0.00621938
12.97
0.00634206
12.9666
0.00646723
12.9631
0.00659485
12.9596
0.00672511
12.9559
0.00685791
12.9522
0.00699344
12.9485
0.00713167
12.9446
0.00727269
12.9407
0.00741649
12.9367
0.00756326
12.9326
0.00771294
12.9284
0.00786566
12.9242
0.00802145
12.9198
0.00818043
12.9154
0.0083426
12.9108
0.00850804
12.9062
0.00867685
12.9015
0.00884906
12.8967
0.00902484
12.8918
0.00920412
12.8868
0.00938712
12.8816
0.00957384
12.8764
0.00976434
12.8711
0.00995878
12.8656
0.0101572
12.8601
0.0103597
12.8544
0.0105664
12.8486
0.0107772
12.8427
0.0109926
12.8367
0.0112123
12.8305
0.0114366
12.8242
0.0116655
12.8178
0.0118993
12.8113
0.0121379
12.8046
0.0123816
12.7978
0.0126303
12.7908
0.0128842
12.7837
0.0131436
12.7764
0.0134083
12.769
0.0136788
12.7614
0.013955
12.7537
0.0142372
12.7458
0.0145253
12.7378
0.0148197
12.7295
0.0151204
12.7211
0.0154276
12.7126
0.0157414
12.7038
0.0160622
12.6949
0.01639
12.6857
0.016725
12.6764
0.0170673
12.6669
0.0174172
12.6572
0.0177749
12.6473
0.0181405
12.6371
0.0185144
12.6268
0.0188967
12.6162
0.0192876
12.6054
0.0196875
12.5944
0.0200964
12.5832
0.0205147
12.5717
0.0209426
12.5599
0.0213804
12.548
0.0218284
12.5357
0.0222867
12.5232
0.0227558
12.5105
0.023236
12.4974
0.0237275
12.4841
0.0242307
12.4705
0.024746
12.4566
0.0252736
12.4424
0.0258139
12.428
0.0263672
12.4132
0.0269339
12.3981
0.0275145
12.3826
0.0281092
12.3669
0.0287188
12.3507
0.0293434
12.3343
0.0299835
12.3175
0.0306394
12.3003
0.0313116
12.2828
0.0320008
12.2649
0.0327076
12.2466
0.0334326
12.2279
0.034176
12.2088
0.034938
12.1893
0.0357191
12.1694
0.0365202
12.149
0.0373422
12.1283
0.0381861
12.107
0.0390525
12.0853
0.0399411
12.0631
0.0408521
12.0405
0.0417858
12.0174
0.0427437
11.9937
0.0437279
11.9696
0.0447396
11.9449
0.0457792
11.9197
0.0468458
11.8939
0.0479385
11.8676
0.0490577
11.8407
0.050206
11.8132
0.0513867
11.7851
0.0526023
11.7564
0.053853
11.7271
0.0551367
11.6972
0.0564516
11.6665
0.0577973
11.6353
0.0591768
11.6033
0.0605948
11.5706
0.0620554
11.5372
0.0635594
11.5031
0.0651052
11.4683
0.0666896
11.4326
0.0683115
11.3962
0.069973
11.359
0.0716786
11.321
0.0734332
11.2821
0.0752394
11.2424
0.0770966
11.2018
0.0790031
11.1603
0.0809574
11.1179
0.0829602
11.0745
0.0850146
11.0302
0.0871245
10.9849
0.0892929
10.9386
0.0915214
10.8913
0.0938099
10.8429
0.0961583
10.7935
0.0985674
10.7429
0.101039
10.6913
0.103575
10.6385
0.10618
10.5845
0.108853
10.5293
0.111598
10.4728
0.114415
10.4152
0.117305
10.3562
0.120271
10.2959
0.123315
10.2342
0.126439
10.1712
0.129644
10.1068
0.132934
10.0409
0.13631
9.97356
0.139774
9.90469
0.143329
9.83428
0.146976
9.76229
0.150719
9.68867
0.15456
9.6134
0.158502
0.162548
12.3967
0.0066019
-12.3989
12.3945
0.00673296
12.3923
0.00686664
12.3901
0.00700312
12.3877
0.00714235
12.3854
0.00728441
12.383
0.00742938
12.3805
0.00757731
12.378
0.00772825
12.3754
0.00788231
12.3728
0.00803945
12.3702
0.00819986
12.3674
0.00836352
12.3647
0.00853055
12.3618
0.00870097
12.3589
0.00887494
12.356
0.00905242
12.353
0.00923358
12.3499
0.0094184
12.3467
0.00960704
12.3435
0.00979959
12.3403
0.00999603
12.3369
0.0101966
12.3335
0.0104012
12.33
0.0106101
12.3265
0.0108233
12.3229
0.0110408
12.3192
0.0112628
12.3154
0.0114895
12.3115
0.0117208
12.3076
0.0119569
12.3036
0.0121979
12.2995
0.0124438
12.2953
0.0126949
12.291
0.0129512
12.2867
0.0132128
12.2822
0.0134799
12.2776
0.0137525
12.273
0.0140308
12.2683
0.0143149
12.2634
0.0146049
12.2585
0.014901
12.2534
0.0152033
12.2483
0.015512
12.243
0.0158271
12.2377
0.0161489
12.2322
0.0164774
12.2266
0.0168128
12.2208
0.0171554
12.215
0.0175052
12.209
0.0178624
12.203
0.0182272
12.1967
0.0185998
12.1904
0.0189802
12.1839
0.0193689
12.1773
0.0197658
12.1705
0.0201712
12.1636
0.0205854
12.1566
0.0210085
12.1494
0.0214407
12.142
0.0218822
12.1345
0.0223333
12.1268
0.0227942
12.119
0.0232651
12.111
0.0237463
12.1028
0.0242381
12.0944
0.0247407
12.0859
0.0252544
12.0772
0.0257793
12.0683
0.0263158
12.0592
0.0268642
12.0499
0.0274248
12.0404
0.027998
12.0308
0.028584
12.0209
0.0291833
12.0108
0.0297959
12.0004
0.0304224
11.9899
0.0310631
11.9791
0.0317182
11.9681
0.0323883
11.9568
0.0330738
11.9454
0.033775
11.9336
0.0344924
11.9216
0.0352264
11.9094
0.0359773
11.8969
0.0367457
11.8841
0.037532
11.871
0.0383367
11.8577
0.0391603
11.844
0.0400032
11.8301
0.0408661
11.8159
0.0417494
11.8013
0.0426538
11.7865
0.0435797
11.7713
0.0445278
11.7558
0.0454986
11.7399
0.0464926
11.7237
0.0475107
11.7072
0.0485536
11.6902
0.049622
11.673
0.0507166
11.6553
0.0518377
11.6373
0.052986
11.6188
0.054162
11.6
0.055367
11.5807
0.0566022
11.561
0.0578687
11.5409
0.0591672
11.5203
0.0604974
11.4993
0.0618598
11.4779
0.0632551
11.4559
0.0646851
11.4335
0.0661522
11.4106
0.0676579
11.3872
0.0692026
11.3632
0.0707856
11.3388
0.0724061
11.3137
0.0740652
11.2882
0.0757656
11.2621
0.0775113
11.2354
0.0793048
11.2081
0.0811463
11.1802
0.0830342
11.1517
0.0849665
11.1225
0.0869437
11.0927
0.0889694
11.0623
0.0910487
11.0311
0.0931858
10.9993
0.0953817
10.9668
0.0976347
10.9335
0.099942
10.8995
0.102303
10.8648
0.104721
10.8293
0.107201
10.793
0.109748
10.7558
0.112365
10.7179
0.115051
10.6791
0.117805
10.6394
0.120625
10.5988
0.123515
10.5574
0.126476
10.515
0.129515
10.4717
0.132633
10.4273
0.135833
10.382
0.139116
10.3357
0.142481
10.2884
0.14593
10.2399
0.149465
10.1904
0.153091
10.1398
0.156809
10.088
0.160623
10.0351
0.164533
9.98095
0.168544
9.9256
0.172655
9.869
0.176871
9.81112
0.181192
9.75193
0.185624
9.69141
0.190168
9.62952
0.194827
9.56622
0.199605
9.50149
0.204503
9.4353
0.209525
9.3676
0.214675
9.29836
0.219954
9.22755
0.225368
9.15514
0.23092
0.236613
11.8011
0.00855902
-11.803
11.7991
0.00873031
11.7971
0.0089052
11.795
0.00908367
11.7929
0.00926587
11.7907
0.00945178
11.7885
0.00964157
11.7862
0.00983532
11.7839
0.010033
11.7816
0.0102349
11.7792
0.0104409
11.7767
0.0106512
11.7742
0.0108658
11.7716
0.0110849
11.769
0.0113086
11.7664
0.0115369
11.7637
0.01177
11.7609
0.0120078
11.7581
0.0122507
11.7552
0.0124986
11.7522
0.0127517
11.7492
0.0130101
11.7461
0.0132738
11.743
0.0135431
11.7398
0.013818
11.7365
0.0140986
11.7331
0.0143852
11.7297
0.0146777
11.7262
0.0149763
11.7227
0.0152812
11.7191
0.0155926
11.7153
0.0159104
11.7115
0.0162349
11.7077
0.0165663
11.7037
0.0169046
11.6997
0.0172501
11.6956
0.0176029
11.6914
0.0179631
11.6871
0.0183309
11.6827
0.0187065
11.6782
0.0190901
11.6736
0.0194817
11.6689
0.0198817
11.6641
0.0202903
11.6593
0.0207074
11.6543
0.0211335
11.6492
0.0215687
11.644
0.0220131
11.6387
0.0224671
11.6332
0.0229308
11.6277
0.0234044
11.622
0.0238882
11.6163
0.0243824
11.6104
0.0248872
11.6043
0.0254029
11.5982
0.0259298
11.5919
0.0264681
11.5854
0.0270181
11.5789
0.02758
11.5721
0.0281541
11.5653
0.0287407
11.5583
0.0293401
11.5511
0.0299526
11.5438
0.0305786
11.5363
0.0312183
11.5287
0.0318722
11.5209
0.0325404
11.5129
0.0332234
11.5048
0.0339214
11.4965
0.034635
11.488
0.0353645
11.4793
0.0361103
11.4704
0.0368727
11.4613
0.0376523
11.4521
0.0384494
11.4426
0.0392644
11.4329
0.0400976
11.423
0.0409497
11.4129
0.0418212
11.4026
0.0427126
11.3921
0.0436243
11.3813
0.0445569
11.3703
0.0455108
11.359
0.0464866
11.3475
0.0474849
11.3357
0.0485061
11.3237
0.049551
11.3114
0.0506203
11.2989
0.0517144
11.286
0.0528341
11.2729
0.0539799
11.2595
0.0551525
11.2458
0.0563527
11.2318
0.0575813
11.2175
0.0588389
11.2029
0.0601263
11.1879
0.0614442
11.1727
0.0627934
11.157
0.064175
11.1411
0.0655897
11.1247
0.0670384
11.1081
0.0685218
11.091
0.0700406
11.0736
0.0715957
11.0558
0.0731885
11.0375
0.0748203
11.0189
0.0764925
10.9999
0.0782057
10.9804
0.0799601
10.9605
0.0817562
10.9402
0.0835953
10.9194
0.0854794
10.8981
0.0874111
10.8764
0.089392
10.8542
0.0914227
10.8314
0.0935026
10.8082
0.0956311
10.7845
0.09781
10.7602
0.100042
10.7354
0.102332
10.71
0.104683
10.6841
0.107094
10.6575
0.109564
10.6304
0.112091
10.6027
0.114678
10.5743
0.117327
10.5453
0.120044
10.5157
0.122834
10.4853
0.125698
10.4543
0.128633
10.4227
0.131638
10.3902
0.134714
10.3571
0.137862
10.3232
0.14109
10.2886
0.144403
10.2531
0.147803
10.2169
0.151289
10.1798
0.154862
10.1419
0.158521
10.1032
0.162267
10.0635
0.166106
10.023
0.170042
9.98157
0.17408
9.93919
0.17822
9.89584
0.182464
9.85151
0.186812
9.80617
0.191268
9.7598
0.195834
9.71238
0.200513
9.66388
0.20531
9.61427
0.210228
9.56354
0.215268
9.51165
0.220434
9.45857
0.225728
9.40429
0.231153
9.34877
0.236714
9.29198
0.242413
9.23389
0.248255
9.17448
0.254241
9.11371
0.260377
9.05154
0.266666
8.98796
0.273111
8.92292
0.279717
8.85638
0.286488
8.78832
0.293427
8.7187
0.300541
0.307832
11.2346
0.0103506
-11.2364
11.2327
0.0105594
11.2309
0.0107726
11.229
0.0109902
11.227
0.0112124
11.225
0.0114393
11.223
0.0116708
11.2209
0.0119073
11.2188
0.0121486
11.2167
0.012395
11.2144
0.0126467
11.2122
0.0129035
11.2099
0.0131658
11.2075
0.0134336
11.2051
0.0137069
11.2027
0.0139861
11.2002
0.0142711
11.1976
0.0145621
11.195
0.0148592
11.1924
0.0151626
11.1896
0.0154723
11.1869
0.0157887
11.184
0.0161117
11.1811
0.0164415
11.1782
0.0167782
11.1752
0.0171222
11.1721
0.0174733
11.1689
0.0178319
11.1657
0.0181981
11.1624
0.0185721
11.159
0.018954
11.1556
0.019344
11.1521
0.0197423
11.1485
0.0201491
11.1449
0.0205645
11.1411
0.0209888
11.1373
0.0214221
11.1334
0.0218647
11.1294
0.0223167
11.1253
0.0227784
11.1212
0.02325
11.1169
0.0237317
11.1126
0.0242237
11.1081
0.0247262
11.1036
0.0252396
11.099
0.025764
11.0943
0.0262997
11.0894
0.0268469
11.0845
0.027406
11.0794
0.0279771
11.0743
0.0285606
11.069
0.0291567
11.0636
0.0297658
11.0581
0.0303881
11.0525
0.0310239
11.0468
0.0316736
11.0409
0.0323375
11.0349
0.0330158
11.0288
0.033709
11.0225
0.0344174
11.0161
0.0351413
11.0096
0.0358812
11.0029
0.0366374
10.996
0.0374103
10.9891
0.0382002
10.9819
0.0390076
10.9746
0.0398329
10.9672
0.0406765
10.9596
0.0415389
10.9518
0.0424205
10.9438
0.043322
10.9357
0.0442436
10.9274
0.0451859
10.9189
0.0461493
10.9102
0.0471344
10.9013
0.0481417
10.8922
0.0491717
10.883
0.0502252
10.8735
0.0513026
10.8638
0.0524047
10.8539
0.0535318
10.8438
0.0546848
10.8334
0.055864
10.8228
0.0570703
10.812
0.0583044
10.8009
0.059567
10.7896
0.0608588
10.7781
0.0621805
10.7663
0.063533
10.7542
0.0649168
10.7418
0.0663329
10.7292
0.067782
10.7163
0.0692651
10.7031
0.0707831
10.6896
0.0723369
10.6758
0.0739273
10.6617
0.0755551
10.6472
0.0772213
10.6325
0.078927
10.6174
0.0806734
10.602
0.0824616
10.5862
0.0842923
10.5701
0.0861666
10.5536
0.0880853
10.5367
0.0900501
10.5195
0.0920624
10.5019
0.0941238
10.4838
0.0962352
10.4654
0.0983969
10.4465
0.10061
10.4273
0.102875
10.4075
0.105196
10.3874
0.107574
10.3668
0.110012
10.3457
0.11251
10.3241
0.115068
10.302
0.117685
10.2795
0.120364
10.2564
0.123109
10.2328
0.125923
10.2087
0.12881
10.184
0.131769
10.1588
0.1348
10.133
0.137901
10.1066
0.141074
10.0796
0.144324
10.052
0.147657
10.0237
0.151076
9.99485
0.154583
9.96531
0.158177
9.93509
0.161855
9.90419
0.165619
9.87258
0.169473
9.84024
0.173423
9.80717
0.177474
9.77335
0.18163
9.73875
0.18589
9.70335
0.190253
9.66715
0.19472
9.63013
0.199295
9.59225
0.203981
9.55351
0.208785
9.51388
0.21371
9.47334
0.218758
9.43187
0.223931
9.38945
0.229231
9.34606
0.234659
9.30168
0.240221
9.25627
0.245919
9.20982
0.251759
9.1623
0.257744
9.11369
0.263877
9.06397
0.270161
9.0131
0.276599
8.96105
0.283196
8.90781
0.289955
8.85335
0.29688
8.79762
0.303977
8.74062
0.311249
8.68229
0.3187
8.62262
0.326335
8.56158
0.334159
8.49912
0.342175
8.43522
0.350389
8.36984
0.358807
8.30294
0.367434
0.376273
10.6949
0.0119939
-10.6965
10.6932
0.0122376
10.6915
0.0124865
10.6897
0.0127406
10.6879
0.013
10.6861
0.0132649
10.6842
0.0135355
10.6823
0.0138117
10.6804
0.0140938
10.6784
0.0143818
10.6764
0.0146759
10.6743
0.0149762
10.6722
0.0152829
10.67
0.0155961
10.6678
0.0159159
10.6656
0.0162425
10.6633
0.0165761
10.6609
0.0169167
10.6585
0.0172645
10.656
0.0176198
10.6535
0.0179826
10.651
0.0183531
10.6483
0.0187315
10.6457
0.019118
10.6429
0.0195127
10.6401
0.0199159
10.6373
0.0203276
10.6344
0.0207481
10.6314
0.0211777
10.6283
0.0216164
10.6252
0.0220645
10.6221
0.0225222
10.6188
0.0229897
10.6155
0.0234673
10.6121
0.0239551
10.6086
0.0244534
10.6051
0.0249624
10.6015
0.0254824
10.5978
0.0260136
10.594
0.0265562
10.5901
0.0271106
10.5862
0.0276769
10.5822
0.0282554
10.578
0.0288465
10.5738
0.0294504
10.5695
0.0300674
10.5651
0.0306978
10.5606
0.0313419
10.556
0.032
10.5513
0.0326725
10.5465
0.0333596
10.5416
0.0340617
10.5366
0.0347792
10.5315
0.0355124
10.5263
0.0362616
10.5209
0.0370273
10.5154
0.0378098
10.5098
0.0386095
10.5041
0.0394268
10.4983
0.0402622
10.4923
0.0411161
10.4862
0.0419889
10.48
0.042881
10.4736
0.0437929
10.467
0.044725
10.4604
0.045678
10.4536
0.0466521
10.4466
0.047648
10.4395
0.0486663
10.4322
0.0497075
10.4247
0.050772
10.4171
0.0518604
10.4093
0.0529734
10.4014
0.0541114
10.3932
0.0552751
10.3849
0.0564653
10.3764
0.0576824
10.3677
0.0589274
10.3588
0.0602007
10.3497
0.0615032
10.3404
0.0628353
10.3309
0.064198
10.3211
0.0655919
10.3112
0.0670179
10.301
0.0684768
10.2906
0.0699695
10.28
0.0714967
10.2691
0.0730593
10.258
0.0746582
10.2466
0.0762942
10.235
0.0779683
10.2231
0.0796816
10.2109
0.0814351
10.1984
0.0832299
10.1857
0.0850668
10.1727
0.0869468
10.1594
0.0888709
10.1458
0.0908403
10.1318
0.0928565
10.1176
0.0949206
10.103
0.0970341
10.0881
0.0991977
10.0729
0.101412
10.0573
0.10368
10.0413
0.106001
10.025
0.108378
10.0083
0.110813
9.99124
0.113306
9.97378
0.115859
9.95591
0.118472
9.93764
0.121147
9.91895
0.123887
9.89983
0.126695
9.88027
0.129572
9.86026
0.132519
9.8398
0.135536
9.81886
0.138623
9.79744
0.141783
9.77553
0.145021
9.75311
0.148339
9.73018
0.151742
9.70672
0.155229
9.68272
0.1588
9.65817
0.162453
9.63305
0.166191
9.60735
0.17002
9.58106
0.173945
9.55417
0.177972
9.52665
0.182099
9.4985
0.186327
9.4697
0.190654
9.44024
0.195082
9.4101
0.199616
9.37926
0.204262
9.3477
0.209027
9.31542
0.213911
9.2824
0.218917
9.24861
0.224043
9.21404
0.229291
9.17867
0.234664
9.14248
0.240169
9.10545
0.24581
9.06757
0.251592
9.02881
0.257518
8.98916
0.263588
8.94858
0.269805
8.90707
0.276173
8.86459
0.282696
8.82113
0.28938
8.77666
0.296228
8.73116
0.303244
8.68461
0.310432
8.63697
0.317797
8.58823
0.325341
8.53836
0.333069
8.48732
0.340987
8.43511
0.349099
8.38167
0.35741
8.327
0.365924
8.27105
0.374648
8.2138
0.383585
8.15522
0.392741
8.09527
0.402122
8.03393
0.411734
7.97115
0.421582
7.90691
0.431672
0.44201
10.1811
0.0135
-10.1826
10.1795
0.0137762
10.178
0.0140583
10.1764
0.0143464
10.1747
0.0146406
10.1731
0.0149411
10.1713
0.0152479
10.1696
0.0155613
10.1678
0.0158814
10.166
0.0162082
10.1641
0.0165421
10.1622
0.016883
10.1603
0.0172312
10.1583
0.0175869
10.1562
0.0179501
10.1542
0.0183211
10.152
0.0187001
10.1499
0.0190871
10.1476
0.0194825
10.1454
0.0198863
10.1431
0.0202987
10.1407
0.02072
10.1383
0.0211504
10.1358
0.02159
10.1333
0.022039
10.1307
0.0224977
10.1281
0.0229662
10.1254
0.0234449
10.1226
0.0239338
10.1198
0.0244333
10.1169
0.0249436
10.114
0.0254649
10.111
0.0259975
10.1079
0.0265415
10.1047
0.0270974
10.1015
0.0276652
10.0982
0.0282454
10.0949
0.0288382
10.0915
0.0294439
10.0879
0.0300627
10.0844
0.0306949
10.0807
0.031341
10.077
0.0320011
10.0731
0.0326756
10.0692
0.0333648
10.0652
0.0340691
10.0611
0.0347887
10.0569
0.0355242
10.0527
0.0362757
10.0483
0.0370438
10.0438
0.0378287
10.0393
0.0386309
10.0346
0.0394507
10.0298
0.0402886
10.0249
0.041145
10.0199
0.0420203
10.0148
0.0429149
10.0096
0.0438294
10.0043
0.0447642
9.99881
0.0457198
9.99323
0.0466966
9.98752
0.0476951
9.98169
0.048716
9.97572
0.0497595
9.96962
0.0508264
9.96338
0.0519172
9.957
0.0530325
9.95047
0.054173
9.9438
0.0553391
9.93698
0.0565315
9.93
0.0577507
9.92286
0.0589975
9.91556
0.0602725
9.9081
0.0615764
9.90046
0.06291
9.89265
0.064274
9.88467
0.0656691
9.8765
0.0670961
9.86814
0.0685557
9.8596
0.0700488
9.85086
0.0715761
9.84192
0.0731385
9.83277
0.0747369
9.82342
0.0763723
9.81385
0.0780455
9.80406
0.0797575
9.79405
0.0815091
9.78381
0.0833014
9.77333
0.0851353
9.76261
0.0870121
9.75165
0.0889328
9.74043
0.0908985
9.72895
0.0929104
9.71721
0.0949694
9.7052
0.0970767
9.69292
0.0992335
9.68035
0.101441
9.66749
0.103701
9.65433
0.106014
9.64087
0.108383
9.62709
0.110807
9.613
0.11329
9.59858
0.11583
9.58383
0.118431
9.56874
0.121094
9.5533
0.123821
9.53749
0.126614
9.52133
0.129475
9.50478
0.132403
9.48785
0.1354
9.47053
0.138468
9.45281
0.14161
9.43468
0.14483
9.41612
0.148128
9.39713
0.151507
9.3777
0.154965
9.35782
0.158504
9.33748
0.162127
9.31666
0.165838
9.29536
0.169642
9.27356
0.173541
9.25125
0.177536
9.22843
0.181626
9.20507
0.18581
9.18117
0.190093
9.15671
0.194479
9.13168
0.198975
9.10607
0.203585
9.07985
0.20831
9.05303
0.213149
9.02559
0.218101
8.9975
0.223168
8.96876
0.228357
8.93935
0.233675
8.90925
0.239126
8.87845
0.244714
8.84692
0.250438
8.81467
0.256299
8.78166
0.262299
8.74788
0.268443
8.71331
0.274737
8.67794
0.281186
8.64173
0.287795
8.60468
0.294566
8.56677
0.301502
8.52797
0.308605
8.48826
0.31588
8.44763
0.323332
8.40604
0.330966
8.36348
0.338787
8.31993
0.346799
8.27535
0.355006
8.22974
0.363413
8.18305
0.372025
8.13527
0.380847
8.08638
0.389884
8.03633
0.399142
7.98512
0.408625
7.9327
0.418341
7.87906
0.428293
7.82415
0.438489
7.76796
0.448933
7.71045
0.459633
7.65159
0.470595
7.59135
0.481825
7.52969
0.493332
0.505119
9.69187
0.0148822
-9.69325
9.69046
0.0151887
9.68902
0.0155018
9.68754
0.0158217
9.68603
0.0161483
9.68449
0.0164819
9.68292
0.0168227
9.68131
0.0171707
9.67966
0.0175262
9.67798
0.0178894
9.67626
0.0182603
9.67451
0.0186392
9.67271
0.0190262
9.67088
0.0194216
9.669
0.0198254
9.66709
0.020238
9.66513
0.0206594
9.66312
0.0210899
9.66108
0.0215297
9.65898
0.021979
9.65684
0.0224379
9.65466
0.0229068
9.65242
0.0233858
9.65014
0.0238752
9.6478
0.0243751
9.64541
0.0248859
9.64297
0.0254077
9.64048
0.0259409
9.63792
0.0264856
9.63531
0.0270421
9.63265
0.0276108
9.62992
0.0281918
9.62713
0.0287854
9.62428
0.029392
9.62137
0.0300118
9.61839
0.030645
9.61534
0.0312922
9.61223
0.0319534
9.60904
0.0326291
9.60578
0.0333196
9.60245
0.0340252
9.59905
0.0347462
9.59557
0.0354831
9.59201
0.0362361
9.58837
0.0370057
9.58464
0.0377922
9.58083
0.0385961
9.57694
0.0394176
9.57296
0.0402573
9.56889
0.0411155
9.56472
0.0419926
9.56047
0.0428893
9.55611
0.0438058
9.55166
0.0447425
9.5471
0.0457001
9.54244
0.0466789
9.53768
0.0476796
9.53281
0.0487026
9.52782
0.0497484
9.52272
0.0508177
9.51751
0.0519107
9.51218
0.0530283
9.50672
0.0541709
9.50114
0.0553391
9.49543
0.0565337
9.4896
0.0577552
9.48362
0.0590043
9.47752
0.0602817
9.47127
0.0615879
9.46487
0.0629237
9.45834
0.0642897
9.45165
0.0656868
9.4448
0.0671157
9.4378
0.0685772
9.43064
0.0700722
9.42331
0.0716013
9.41582
0.0731655
9.40815
0.0747655
9.4003
0.0764023
9.39227
0.0780767
9.38406
0.0797897
9.37565
0.0815424
9.36706
0.0833356
9.35826
0.0851704
9.34926
0.0870477
9.34004
0.0889685
9.33062
0.0909341
9.32098
0.0929454
9.31111
0.0950038
9.30101
0.0971104
9.29068
0.0992665
9.2801
0.101473
9.26928
0.103731
9.25821
0.106043
9.24687
0.108409
9.23528
0.11083
9.22341
0.113309
9.21126
0.115846
9.19883
0.118444
9.18611
0.121103
9.1731
0.123826
9.15977
0.126613
9.14614
0.129466
9.13218
0.132387
9.1179
0.135377
9.10328
0.13844
9.08832
0.141577
9.073
0.144788
9.05733
0.148076
9.04129
0.151441
9.02487
0.154887
9.00806
0.158415
8.99086
0.16203
8.97326
0.165733
8.95524
0.169526
8.9368
0.173409
8.91792
0.177382
8.8986
0.181449
8.87882
0.185616
8.85857
0.189886
8.83785
0.194262
8.81665
0.198745
8.79494
0.203334
8.77272
0.208029
8.74998
0.212835
8.7267
0.217757
8.70287
0.222803
8.67848
0.227975
8.65352
0.233275
8.62796
0.238701
8.60181
0.244254
8.57504
0.249938
8.54764
0.255758
8.51959
0.261722
8.49088
0.267835
8.4615
0.2741
8.43142
0.280516
8.40063
0.287086
8.36912
0.293811
8.33687
0.300698
8.30385
0.307752
8.27006
0.31498
8.23547
0.322386
8.20006
0.329972
8.16382
0.337742
8.12673
0.345699
8.08876
0.353849
8.0499
0.362196
8.01011
0.370746
7.9694
0.379506
7.92772
0.388478
7.88505
0.397669
7.84138
0.407083
7.79669
0.416725
7.75093
0.426602
7.7041
0.436718
7.65616
0.447082
7.60708
0.457698
7.55685
0.468572
7.50544
0.479711
7.4528
0.491121
7.39893
0.502809
7.34378
0.514783
7.28732
0.527049
7.22953
0.539614
7.17038
0.552488
0.565674
9.22609
0.0161502
-9.22736
9.22479
0.016485
9.22347
0.0168271
9.22211
0.0171764
9.22073
0.0175333
9.21931
0.0178979
9.21786
0.0182703
9.21638
0.0186508
9.21487
0.0190394
9.21332
0.0194365
9.21174
0.0198421
9.21012
0.0202564
9.20847
0.0206798
9.20678
0.0211123
9.20505
0.0215541
9.20328
0.0220055
9.20148
0.0224667
9.19963
0.0229379
9.19774
0.0234193
9.19581
0.0239112
9.19383
0.0244137
9.19181
0.0249272
9.18974
0.0254518
9.18763
0.0259878
9.18547
0.0265356
9.18326
0.0270952
9.181
0.027667
9.17869
0.0282513
9.17633
0.0288484
9.17391
0.0294586
9.17144
0.030082
9.16891
0.0307191
9.16633
0.0313701
9.16369
0.0320354
9.16098
0.0327153
9.15822
0.0334101
9.15539
0.0341201
9.1525
0.0348458
9.14954
0.0355874
9.14651
0.0363454
9.14342
0.03712
9.14025
0.0379117
9.13701
0.0387209
9.1337
0.0395479
9.13031
0.0403933
9.12685
0.0412573
9.12331
0.0421405
9.11968
0.0430432
9.11597
0.043966
9.11218
0.0449093
9.1083
0.0458736
9.10433
0.0468594
9.10026
0.0478671
9.09611
0.0488972
9.09186
0.0499504
9.08751
0.0510271
9.08306
0.052128
9.07851
0.0532536
9.07386
0.0544044
9.06909
0.0555811
9.06422
0.0567843
9.05923
0.0580144
9.05413
0.0592724
9.04891
0.0605587
9.04357
0.0618743
9.03811
0.0632196
9.03252
0.0645955
9.02679
0.0660027
9.02094
0.0674417
9.01495
0.0689135
9.00882
0.0704189
9.00255
0.0719586
8.99613
0.0735337
8.98956
0.0751449
8.98284
0.0767931
8.97597
0.0784792
8.96893
0.080204
8.96172
0.0819685
8.95435
0.0837737
8.94681
0.0856207
8.93909
0.0875106
8.93119
0.0894444
8.9231
0.091423
8.91482
0.0934476
8.90635
0.0955193
8.89768
0.0976393
8.8888
0.0998087
8.87972
0.102029
8.87042
0.104302
8.86091
0.106628
8.85116
0.109008
8.84119
0.111445
8.83099
0.113938
8.82054
0.116491
8.80984
0.119103
8.79889
0.121778
8.78769
0.124516
8.77621
0.127319
8.76447
0.130189
8.75245
0.133127
8.74014
0.136134
8.72754
0.139213
8.71464
0.142365
8.70143
0.145592
8.68792
0.148897
8.67408
0.15228
8.65991
0.155746
8.6454
0.159294
8.63055
0.162927
8.61534
0.166646
8.59978
0.170453
8.58384
0.174352
8.56752
0.178346
8.55082
0.182438
8.53372
0.186629
8.51621
0.190918
8.49828
0.195308
8.47993
0.199802
8.46114
0.204406
8.4419
0.209124
8.4222
0.213959
8.40204
0.218911
8.38139
0.223979
8.36026
0.229165
8.33862
0.234474
8.31646
0.239912
8.29378
0.245486
8.27055
0.251199
8.24678
0.257052
8.22244
0.263044
8.19751
0.269175
8.172
0.275451
8.14588
0.281879
8.11914
0.288465
8.09176
0.295215
8.06373
0.302131
8.03503
0.309214
8.00565
0.316465
7.97557
0.323889
7.94478
0.331491
7.91325