/*--------------------------------*- C++ -*----------------------------------*\
  =========                 |
  \\      /  F ield         | OpenFOAM: The Open Source CFD Toolbox
   \\    /   O peration     | Website:  https://openfoam.org
    \\  /    A nd           | Version:  13
     \\/     M anipulation  |
\*---------------------------------------------------------------------------*/
FoamFile
{
    format      ascii;
    class       volVectorField;
    location    "0.35";
    object      U;
}
// * * * * * * * * * * * * * * * * * * * * * * * * * * * * * * * * * * * * * //

dimensions      [0 1 -1 0 0 0 0];

internalField   nonuniform List<vector> 
68864
(
(30.0155 -0.131005 -1.42398e-21)
(30.0155 -0.13155 -4.27827e-23)
(30.0156 -0.132101 1.14496e-20)
(30.0157 -0.132659 -1.27723e-20)
(30.0157 -0.133224 1.2353e-21)
(30.0158 -0.133796 -1.87917e-21)
(30.0158 -0.134374 5.73399e-21)
(30.0159 -0.13496 -1.87717e-21)
(30.016 -0.135552 2.10913e-21)
(30.016 -0.136152 -7.65696e-21)
(30.0161 -0.136759 4.36709e-21)
(30.0161 -0.137373 5.40921e-22)
(30.0162 -0.137994 -8.85755e-21)
(30.0163 -0.138622 3.61668e-21)
(30.0163 -0.139258 5.06725e-21)
(30.0164 -0.139901 -3.32085e-21)
(30.0164 -0.140551 5.13488e-21)
(30.0165 -0.141209 3.64363e-21)
(30.0166 -0.141875 -1.82626e-21)
(30.0166 -0.142548 -5.99648e-21)
(30.0167 -0.143229 8.80419e-21)
(30.0168 -0.143917 4.48571e-21)
(30.0168 -0.144612 -6.17213e-21)
(30.0169 -0.145316 -6.95558e-21)
(30.017 -0.146027 4.12177e-21)
(30.017 -0.146745 -8.1296e-21)
(30.0171 -0.147472 3.71654e-21)
(30.0172 -0.148206 8.12186e-21)
(30.0172 -0.148948 -1.77987e-20)
(30.0173 -0.149698 -1.25473e-20)
(30.0174 -0.150455 3.84226e-21)
(30.0174 -0.151221 1.04305e-20)
(30.0175 -0.151994 -7.5415e-21)
(30.0176 -0.152774 2.00909e-20)
(30.0177 -0.153563 1.19967e-20)
(30.0177 -0.154359 -2.15982e-20)
(30.0178 -0.155163 2.20879e-20)
(30.0179 -0.155975 -1.0653e-20)
(30.018 -0.156794 -1.32136e-20)
(30.018 -0.157621 2.72251e-20)
(30.0181 -0.158455 -2.65709e-20)
(30.0182 -0.159297 2.5609e-20)
(30.0183 -0.160147 -9.27848e-21)
(30.0184 -0.161004 3.62622e-22)
(30.0184 -0.161868 -2.75789e-20)
(30.0185 -0.162739 3.18816e-20)
(30.0186 -0.163618 -9.76647e-21)
(30.0187 -0.164504 -9.50162e-21)
(30.0188 -0.165397 -8.68223e-22)
(30.0188 -0.166297 1.31227e-20)
(30.0189 -0.167204 -1.04733e-20)
(30.019 -0.168117 -3.84401e-21)
(30.0191 -0.169037 2.05639e-20)
(30.0192 -0.169963 -8.89688e-21)
(30.0193 -0.170896 3.94432e-21)
(30.0194 -0.171835 -9.14768e-21)
(30.0195 -0.17278 1.33197e-20)
(30.0196 -0.173731 -1.17708e-20)
(30.0197 -0.174687 8.02207e-21)
(30.0197 -0.175648 -1.94261e-20)
(30.0198 -0.176616 3.03885e-21)
(30.0199 -0.177588 1.46515e-20)
(30.02 -0.178565 -3.79088e-21)
(30.0201 -0.179547 1.10671e-20)
(30.0202 -0.180533 -1.17888e-20)
(30.0203 -0.181522 4.28455e-21)
(30.0204 -0.182516 -5.14806e-21)
(30.0205 -0.183514 3.44549e-21)
(30.0206 -0.184515 2.9075e-22)
(30.0207 -0.185519 4.30733e-21)
(30.0208 -0.186526 4.13727e-21)
(30.0209 -0.187535 -4.27293e-21)
(30.021 -0.188546 -1.65057e-20)
(30.0212 -0.189558 1.85044e-20)
(30.0213 -0.190572 -7.99569e-21)
(30.0214 -0.191588 -6.51288e-21)
(30.0215 -0.192604 2.11619e-20)
(30.0216 -0.193621 -2.41874e-20)
(30.0217 -0.194638 9.45655e-21)
(30.0218 -0.195654 -1.32945e-20)
(30.0219 -0.196669 2.41065e-20)
(30.022 -0.197682 -1.60798e-20)
(30.0221 -0.198694 4.34245e-21)
(30.0222 -0.199704 1.15597e-20)
(30.0224 -0.200712 -1.4329e-20)
(30.0225 -0.201717 -2.16642e-21)
(30.0226 -0.202719 1.15948e-20)
(30.0227 -0.203717 -4.05655e-21)
(30.0228 -0.20471 -7.98751e-21)
(30.0229 -0.205699 1.44324e-20)
(30.023 -0.206682 4.12363e-21)
(30.0231 -0.20766 4.41731e-21)
(30.0233 -0.208631 -1.85052e-20)
(30.0234 -0.209596 7.36935e-21)
(30.0235 -0.210554 -1.95639e-20)
(30.0236 -0.211505 2.26234e-20)
(30.0237 -0.212448 -3.07721e-20)
(30.0238 -0.213384 2.40056e-20)
(30.0239 -0.21431 1.28783e-21)
(30.024 -0.215225 -2.39585e-20)
(30.0241 -0.216129 3.42108e-20)
(30.0242 -0.217024 -1.14348e-20)
(30.0244 -0.21791 -1.61374e-20)
(30.0245 -0.218788 2.0325e-21)
(30.0246 -0.219656 6.46406e-21)
(30.0247 -0.220508 -4.17853e-21)
(30.0248 -0.221343 1.23087e-20)
(30.0249 -0.222162 3.62774e-21)
(30.025 -0.22297 -1.56345e-20)
(30.0251 -0.223771 2.27562e-21)
(30.0252 -0.224567 2.18785e-21)
(30.0253 -0.22535 1.01678e-21)
(30.0254 -0.226113 3.24168e-21)
(30.0255 -0.22685 -9.27786e-21)
(30.0255 -0.227563 1.18663e-20)
(30.0256 -0.228263 -5.16611e-21)
(30.0257 -0.228961 5.28254e-22)
(30.0258 -0.229659 7.61316e-21)
(30.0259 -0.230348 -3.20319e-21)
(30.026 -0.231013 -4.67639e-21)
(30.0261 -0.231642 -3.24493e-21)
(30.0261 -0.232238 5.76293e-21)
(30.0262 -0.232816 -4.29853e-21)
(30.0263 -0.233392 8.78549e-21)
(30.0263 -0.233976 -6.16266e-22)
(30.0264 -0.234559 7.64204e-22)
(30.0265 -0.235121 -5.13357e-21)
(30.0266 -0.235646 -1.05804e-21)
(30.0266 -0.23613 -1.84282e-21)
(30.0267 -0.236587 2.88416e-21)
(30.0267 -0.237037 -1.94939e-21)
(30.0268 -0.237493 3.88796e-21)
(30.0268 -0.237953 -2.33898e-21)
(30.0269 -0.238403 -4.9597e-24)
(30.027 -0.238826 1.59683e-21)
(30.027 -0.239214 -2.61694e-21)
(30.027 -0.239571 8.39184e-22)
(30.0271 -0.23991 1.83308e-22)
(30.0271 -0.240244 2.02007e-22)
(30.0272 -0.240578 1.17486e-21)
(30.0272 -0.240907 -2.52945e-21)
(30.0272 -0.241222 2.5924e-21)
(30.0273 -0.241516 -1.86521e-21)
(30.0273 -0.241785 -7.53902e-22)
(30.0273 -0.242036 5.11774e-22)
(30.0274 -0.242273 1.53343e-21)
(30.0274 -0.242502 -3.14146e-22)
(30.0274 -0.242724 -1.10046e-21)
(30.0275 -0.242935 5.28399e-22)
(30.0275 -0.243133 6.23191e-22)
(30.0275 -0.243317 -7.97044e-22)
(30.0275 -0.243487 4.66809e-22)
(30.0275 -0.243643 -1.21897e-22)
(30.0276 -0.243789 -2.20811e-22)
(30.0276 -0.243925 2.90748e-24)
(30.0276 -0.244051 1.0005e-22)
(30.0276 -0.244167 1.12182e-22)
(30.0276 -0.244273 -1.04803e-22)
(30.0276 -0.244367 2.251e-23)
(30.0277 -0.24445 2.24783e-24)
(30.0277 -0.244523 1.17559e-23)
(30.0277 -0.244586 4.00763e-23)
(30.0277 -0.24464 -3.64423e-23)
(30.0277 -0.244684 1.64512e-23)
(30.0277 -0.244719 -1.6905e-23)
(30.0277 -0.244742 1.76371e-24)
(30.0277 -0.244758 4.70982e-25)
(30.0164 -0.131565 -3.12782e-21)
(30.0164 -0.132062 2.74636e-21)
(30.0165 -0.132566 -3.3554e-20)
(30.0166 -0.133076 5.21996e-21)
(30.0166 -0.133594 6.07713e-21)
(30.0167 -0.134118 2.47047e-20)
(30.0168 -0.13465 -3.03799e-20)
(30.0168 -0.135189 2.98657e-20)
(30.0169 -0.135735 -4.1029e-20)
(30.017 -0.136289 4.61061e-21)
(30.0171 -0.13685 1.76598e-20)
(30.0171 -0.137419 -1.71421e-20)
(30.0172 -0.137995 -1.42091e-21)
(30.0173 -0.138579 1.63367e-20)
(30.0174 -0.13917 6.81718e-22)
(30.0174 -0.139769 -6.19111e-21)
(30.0175 -0.140376 1.80469e-20)
(30.0176 -0.140991 -1.30289e-20)
(30.0177 -0.141614 3.97551e-21)
(30.0178 -0.142245 3.59686e-21)
(30.0179 -0.142884 -4.14023e-21)
(30.0179 -0.14353 -3.25882e-21)
(30.018 -0.144185 2.84939e-20)
(30.0181 -0.144847 -3.84253e-20)
(30.0182 -0.145518 -5.95931e-21)
(30.0183 -0.146198 3.05265e-20)
(30.0184 -0.146885 -1.69193e-20)
(30.0185 -0.147581 1.10501e-20)
(30.0186 -0.148285 -1.98246e-20)
(30.0187 -0.148997 1.16894e-20)
(30.0188 -0.149717 -1.45049e-20)
(30.0189 -0.150446 2.96648e-20)
(30.019 -0.151183 -2.39274e-20)
(30.0191 -0.151928 -1.81345e-20)
(30.0192 -0.152682 6.93887e-20)
(30.0193 -0.153444 2.97907e-21)
(30.0194 -0.154215 -3.25826e-20)
(30.0195 -0.154993 1.89055e-21)
(30.0196 -0.15578 1.26046e-20)
(30.0197 -0.156575 -7.16922e-21)
(30.0198 -0.157378 -2.05309e-20)
(30.0199 -0.15819 1.3097e-20)
(30.02 -0.15901 1.54204e-20)
(30.0201 -0.159838 -2.16345e-20)
(30.0203 -0.160674 -1.58159e-20)
(30.0204 -0.161517 3.38273e-20)
(30.0205 -0.162369 -5.81117e-20)
(30.0206 -0.163229 6.98307e-20)
(30.0208 -0.164096 -3.89094e-20)
(30.0209 -0.164972 -2.06467e-20)
(30.021 -0.165854 6.77139e-21)
(30.0211 -0.166745 4.78091e-20)
(30.0213 -0.167642 -4.23113e-22)
(30.0214 -0.168547 3.82981e-21)
(30.0215 -0.169459 -4.31196e-20)
(30.0217 -0.170378 -1.62503e-20)
(30.0218 -0.171304 2.80535e-20)
(30.022 -0.172236 -1.3565e-20)
(30.0221 -0.173175 5.03257e-21)
(30.0223 -0.17412 -2.10384e-21)
(30.0224 -0.175072 1.24426e-21)
(30.0226 -0.176029 1.27376e-20)
(30.0227 -0.176993 3.57645e-20)
(30.0229 -0.177962 -5.02929e-20)
(30.023 -0.178935 2.45961e-20)
(30.0232 -0.179915 -3.80876e-20)
(30.0234 -0.180898 -1.25374e-20)
(30.0235 -0.181887 4.05148e-20)
(30.0237 -0.18288 1.51695e-20)
(30.0238 -0.183878 -1.01972e-20)
(30.024 -0.184878 -2.3692e-20)
(30.0242 -0.185882 3.56136e-20)
(30.0244 -0.186888 -1.62415e-20)
(30.0245 -0.187898 1.30466e-20)
(30.0247 -0.188911 -2.33932e-20)
(30.0249 -0.189926 2.06652e-20)
(30.0251 -0.190943 1.23491e-20)
(30.0253 -0.191961 9.6133e-22)
(30.0254 -0.19298 -3.98257e-20)
(30.0256 -0.193998 2.83007e-20)
(30.0258 -0.195017 -4.46004e-20)
(30.026 -0.196036 3.0034e-20)
(30.0262 -0.197055 -1.33597e-20)
(30.0264 -0.198073 1.66106e-20)
(30.0266 -0.199091 -1.37486e-20)
(30.0268 -0.200106 2.66988e-20)
(30.027 -0.201119 -2.0051e-20)
(30.0272 -0.202127 5.64183e-21)
(30.0273 -0.203132 -1.67212e-21)
(30.0275 -0.204134 -1.64067e-20)
(30.0277 -0.205132 3.22303e-20)
(30.0279 -0.206126 -1.43176e-20)
(30.0281 -0.207115 -9.19492e-21)
(30.0283 -0.208098 -6.86997e-21)
(30.0285 -0.209075 -2.8704e-21)
(30.0287 -0.210045 7.53605e-21)
(30.0289 -0.211008 1.60871e-20)
(30.0291 -0.211964 8.09354e-21)
(30.0293 -0.212912 -2.71328e-20)
(30.0295 -0.213851 -7.92697e-21)
(30.0297 -0.21478 8.16856e-21)
(30.0299 -0.215699 1.56094e-20)
(30.0301 -0.21661 3.74142e-21)
(30.0303 -0.217513 -3.93109e-21)
(30.0305 -0.218406 -9.96003e-21)
(30.0307 -0.219285 -4.2398e-21)
(30.0308 -0.220147 6.44059e-21)
(30.031 -0.220995 1.60124e-20)
(30.0312 -0.221832 -1.53839e-20)
(30.0314 -0.222663 4.37572e-21)
(30.0316 -0.223489 -1.10657e-20)
(30.0318 -0.224303 1.72558e-20)
(30.0319 -0.225095 -8.00457e-21)
(30.0321 -0.225861 -2.95256e-21)
(30.0323 -0.226603 1.3475e-20)
(30.0324 -0.227333 -1.57078e-20)
(30.0326 -0.228063 -4.83605e-22)
(30.0328 -0.228794 4.92385e-21)
(30.0329 -0.229517 8.1166e-21)
(30.0331 -0.230213 -7.10745e-21)
(30.0332 -0.230871 -6.20579e-21)
(30.0334 -0.231494 9.90615e-21)
(30.0335 -0.2321 -5.37935e-21)
(30.0336 -0.232707 1.16606e-21)
(30.0338 -0.233325 7.72558e-22)
(30.0339 -0.233941 -6.93451e-21)
(30.034 -0.234535 7.89065e-22)
(30.0342 -0.235088 -1.55234e-22)
(30.0343 -0.235597 9.84276e-21)
(30.0344 -0.236078 -3.94369e-21)
(30.0345 -0.236554 1.76032e-21)
(30.0346 -0.237039 -2.40341e-21)
(30.0347 -0.237531 1.95571e-21)
(30.0348 -0.238011 -2.84863e-21)
(30.0349 -0.238461 5.99374e-21)
(30.035 -0.238871 -6.71165e-21)
(30.0351 -0.239247 4.34125e-21)
(30.0352 -0.239607 -3.80526e-21)
(30.0352 -0.239964 6.40655e-23)
(30.0353 -0.240323 4.53476e-21)
(30.0354 -0.240677 -8.72888e-22)
(30.0355 -0.241015 -1.66249e-21)
(30.0355 -0.241328 1.70197e-21)
(30.0356 -0.241614 5.83225e-22)
(30.0357 -0.241881 -3.07949e-21)
(30.0357 -0.242135 -2.8209e-22)
(30.0358 -0.242381 3.50282e-21)
(30.0358 -0.24262 -3.17695e-21)
(30.0358 -0.242848 1.98738e-21)
(30.0359 -0.243061 8.03801e-22)
(30.0359 -0.243258 -2.506e-21)
(30.036 -0.24344 6.71399e-22)
(30.036 -0.243609 -5.98245e-22)
(30.036 -0.243766 4.89127e-22)
(30.0361 -0.243913 2.9932e-22)
(30.0361 -0.24405 -3.7891e-22)
(30.0361 -0.244175 8.08137e-22)
(30.0361 -0.244289 -7.37214e-22)
(30.0361 -0.244391 3.02918e-22)
(30.0361 -0.244482 -6.96736e-23)
(30.0362 -0.244562 1.87159e-22)
(30.0362 -0.244631 -3.77245e-23)
(30.0362 -0.24469 -7.02522e-23)
(30.0362 -0.244738 5.49744e-23)
(30.0362 -0.244776 -5.20254e-23)
(30.0362 -0.244799 7.43543e-24)
(30.0362 -0.244814 -4.62119e-24)
(30.0065 -0.131651 -2.34909e-20)
(30.0066 -0.132153 -9.15829e-21)
(30.0067 -0.132663 -1.00826e-20)
(30.0067 -0.133179 2.32618e-20)
(30.0068 -0.133701 -2.90187e-20)
(30.0069 -0.134232 5.34794e-20)
(30.007 -0.134769 -7.47647e-21)
(30.0071 -0.135313 2.04526e-21)
(30.0072 -0.135865 3.25879e-22)
(30.0073 -0.136424 5.32868e-21)
(30.0074 -0.136991 -3.87174e-20)
(30.0075 -0.137565 1.42001e-20)
(30.0076 -0.138147 1.74616e-20)
(30.0077 -0.138736 1.71776e-20)
(30.0079 -0.139333 -2.2003e-20)
(30.008 -0.139937 1.27292e-20)
(30.0081 -0.14055 -2.11163e-21)
(30.0082 -0.14117 1.43372e-21)
(30.0083 -0.141798 -1.88308e-20)
(30.0084 -0.142434 -3.16947e-21)
(30.0085 -0.143078 -1.07077e-20)
(30.0087 -0.14373 -1.14667e-20)
(30.0088 -0.14439 1.85562e-20)
(30.0089 -0.145058 5.26866e-21)
(30.0091 -0.145734 -2.68824e-20)
(30.0092 -0.146418 4.66921e-20)
(30.0093 -0.147111 -3.7655e-20)
(30.0094 -0.147812 6.78195e-21)
(30.0096 -0.148521 3.30269e-20)
(30.0097 -0.149238 1.68988e-21)
(30.0099 -0.149963 -4.44126e-20)
(30.01 -0.150697 3.26199e-20)
(30.0102 -0.151439 -3.7306e-20)
(30.0103 -0.152189 -7.59763e-21)
(30.0105 -0.152948 3.27832e-20)
(30.0106 -0.153715 -6.99082e-21)
(30.0108 -0.154491 -1.10129e-20)
(30.0109 -0.155274 2.07276e-20)
(30.0111 -0.156066 5.82905e-21)
(30.0113 -0.156866 1.68564e-20)
(30.0114 -0.157674 -8.49012e-20)
(30.0116 -0.158491 1.72374e-20)
(30.0118 -0.159315 8.97243e-20)
(30.0119 -0.160148 -1.02024e-19)
(30.0121 -0.160989 8.71203e-22)
(30.0123 -0.161837 5.65358e-20)
(30.0125 -0.162694 4.66379e-20)
(30.0127 -0.163558 -2.84085e-20)
(30.0129 -0.164431 1.36051e-20)
(30.0131 -0.165311 -2.344e-20)
(30.0132 -0.166198 5.39803e-21)
(30.0134 -0.167093 -2.48841e-20)
(30.0136 -0.167995 5.02067e-20)
(30.0139 -0.168904 8.06956e-21)
(30.0141 -0.169821 -4.59306e-20)
(30.0143 -0.170744 -4.26174e-20)
(30.0145 -0.171675 9.89221e-21)
(30.0147 -0.172612 7.41283e-20)
(30.0149 -0.173555 -3.37979e-20)
(30.0152 -0.174504 -3.40755e-20)
(30.0154 -0.17546 -1.92903e-20)
(30.0156 -0.176421 3.72253e-20)
(30.0158 -0.177389 6.04388e-20)
(30.0161 -0.178362 -8.49776e-20)
(30.0163 -0.17934 3.64019e-20)
(30.0166 -0.180323 1.41687e-20)
(30.0168 -0.18131 2.63836e-20)
(30.0171 -0.182302 -3.85839e-20)
(30.0173 -0.183298 1.11506e-20)
(30.0176 -0.184298 -1.3479e-20)
(30.0178 -0.185302 4.72486e-20)
(30.0181 -0.186309 -1.63715e-21)
(30.0184 -0.18732 -4.52158e-20)
(30.0186 -0.188333 9.64795e-21)
(30.0189 -0.189348 -1.59986e-21)
(30.0192 -0.190365 1.01471e-20)
(30.0195 -0.191384 -2.49606e-20)
(30.0197 -0.192403 -1.5819e-20)
(30.02 -0.193423 -2.66176e-21)
(30.0203 -0.194443 1.58221e-20)
(30.0206 -0.195464 -2.15733e-20)
(30.0209 -0.196486 5.99125e-20)
(30.0212 -0.197506 -2.84145e-21)
(30.0215 -0.198526 -3.98682e-20)
(30.0218 -0.199544 4.90857e-21)
(30.0221 -0.200559 2.51042e-20)
(30.0224 -0.20157 -1.28516e-20)
(30.0227 -0.202578 -4.65352e-20)
(30.023 -0.203583 5.76181e-20)
(30.0233 -0.204585 -1.88804e-20)
(30.0236 -0.205584 -1.63095e-20)
(30.0239 -0.206578 -1.41236e-20)
(30.0242 -0.207566 8.58552e-21)
(30.0245 -0.208547 5.52077e-20)
(30.0248 -0.209521 -2.38755e-20)
(30.0251 -0.210488 -1.05919e-20)
(30.0254 -0.21145 3.53455e-20)
(30.0257 -0.212405 -3.65601e-20)
(30.026 -0.213351 3.02504e-20)
(30.0263 -0.214287 -2.9918e-20)
(30.0266 -0.215212 -5.73146e-21)
(30.0269 -0.216127 -5.56744e-22)
(30.0272 -0.217033 4.05236e-21)
(30.0275 -0.217932 1.22753e-20)
(30.0278 -0.218822 5.33721e-21)
(30.0281 -0.219698 -3.79061e-20)
(30.0284 -0.220557 1.87375e-20)
(30.0287 -0.221401 2.85824e-20)
(30.029 -0.222233 -5.55104e-21)
(30.0293 -0.223059 -3.65847e-20)
(30.0295 -0.223878 3.9389e-20)
(30.0298 -0.224686 -1.9944e-20)
(30.0301 -0.225472 1.93604e-20)
(30.0304 -0.226232 -2.47817e-21)
(30.0306 -0.22697 -2.83415e-20)
(30.0309 -0.227696 4.39019e-21)
(30.0311 -0.228421 4.32062e-21)
(30.0314 -0.229147 5.82321e-21)
(30.0316 -0.229862 -1.53017e-21)
(30.0319 -0.230549 -7.91863e-21)
(30.0321 -0.231199 -3.59009e-21)
(30.0323 -0.231815 -7.65404e-21)
(30.0326 -0.232416 2.16635e-20)
(30.0328 -0.233019 4.0797e-21)
(30.033 -0.233632 -1.57024e-20)
(30.0332 -0.234242 1.14238e-21)
(30.0334 -0.234826 3.32397e-22)
(30.0336 -0.235369 -7.11773e-21)
(30.0338 -0.235869 4.98422e-21)
(30.034 -0.236344 6.0745e-21)
(30.0341 -0.236816 6.93578e-21)
(30.0343 -0.237298 -6.27881e-21)
(30.0345 -0.237784 1.90083e-21)
(30.0347 -0.238256 -6.50186e-21)
(30.0348 -0.238695 4.92299e-21)
(30.035 -0.239095 -1.03159e-21)
(30.0351 -0.239464 1.23184e-21)
(30.0352 -0.239819 -6.82422e-22)
(30.0354 -0.240172 1.55984e-21)
(30.0355 -0.240526 -2.39988e-21)
(30.0356 -0.240874 -3.81527e-23)
(30.0358 -0.241204 1.44165e-21)
(30.0359 -0.241508 1.54939e-21)
(30.036 -0.241787 7.89791e-22)
(30.0361 -0.242047 -6.1178e-21)
(30.0362 -0.242296 1.442e-21)
(30.0363 -0.242537 4.2545e-21)
(30.0363 -0.24277 -3.093e-21)
(30.0364 -0.242992 -4.60596e-22)
(30.0365 -0.243199 1.34082e-21)
(30.0366 -0.24339 -3.27611e-21)
(30.0366 -0.243566 2.61174e-21)
(30.0367 -0.243729 -6.6186e-22)
(30.0368 -0.243881 1.01474e-21)
(30.0368 -0.244024 -5.8756e-22)
(30.0369 -0.244155 2.64714e-23)
(30.0369 -0.244276 4.03319e-22)
(30.037 -0.244385 -4.44029e-22)
(30.037 -0.244482 4.32893e-22)
(30.0371 -0.244568 -6.50181e-22)
(30.0371 -0.244643 8.23261e-23)
(30.0372 -0.244708 2.10046e-22)
(30.0372 -0.244762 -4.07872e-23)
(30.0372 -0.244807 7.94004e-24)
(30.0373 -0.24484 4.85252e-23)
(30.0373 -0.244858 -1.87339e-23)
(30.0374 -0.244867 6.52384e-24)
(30.0021 -0.133171 7.51445e-21)
(30.0022 -0.133643 -1.15278e-20)
(30.0023 -0.134121 2.78153e-20)
(30.0024 -0.134606 -2.93854e-20)
(30.0025 -0.135098 6.20098e-20)
(30.0026 -0.135597 -8.80347e-20)
(30.0027 -0.136104 4.80816e-20)
(30.0028 -0.136617 3.58362e-20)
(30.003 -0.137138 1.66215e-20)
(30.0031 -0.137666 -4.48261e-20)
(30.0032 -0.138202 3.7515e-20)
(30.0033 -0.138745 -3.46528e-20)
(30.0034 -0.139296 2.06909e-20)
(30.0036 -0.139854 -1.85443e-20)
(30.0037 -0.14042 3.78744e-21)
(30.0038 -0.140994 -2.7194e-20)
(30.004 -0.141576 -1.35624e-20)
(30.0041 -0.142166 6.14693e-20)
(30.0042 -0.142764 -1.78826e-20)
(30.0044 -0.14337 -5.36089e-20)
(30.0045 -0.143984 -1.81873e-20)
(30.0046 -0.144606 2.24907e-20)
(30.0048 -0.145236 -2.50079e-20)
(30.0049 -0.145875 4.90433e-20)
(30.0051 -0.146521 -5.37367e-21)
(30.0052 -0.147177 1.24009e-20)
(30.0054 -0.14784 -3.25445e-20)
(30.0056 -0.148513 2.48683e-20)
(30.0057 -0.149193 2.39108e-20)
(30.0059 -0.149882 2.09297e-20)
(30.0061 -0.150579 -3.51879e-20)
(30.0062 -0.151285 -3.22719e-21)
(30.0064 -0.152 -5.05926e-20)
(30.0066 -0.152723 8.41069e-20)
(30.0068 -0.153455 -6.93962e-20)
(30.007 -0.154196 5.06334e-21)
(30.0071 -0.154945 2.08396e-20)
(30.0073 -0.155702 -2.83659e-20)
(30.0075 -0.156468 7.34444e-20)
(30.0077 -0.157243 -8.00166e-20)
(30.0079 -0.158026 8.89274e-20)
(30.0081 -0.158818 -7.57716e-20)
(30.0083 -0.159619 3.3447e-20)
(30.0085 -0.160428 2.68421e-20)
(30.0088 -0.161245 -4.25654e-20)
(30.009 -0.16207 1.90824e-20)
(30.0092 -0.162904 -2.60875e-20)
(30.0094 -0.163746 2.06827e-20)
(30.0097 -0.164597 1.74848e-20)
(30.0099 -0.165455 -1.08253e-20)
(30.0101 -0.166321 -6.6708e-21)
(30.0104 -0.167195 7.00172e-20)
(30.0106 -0.168076 -1.03668e-19)
(30.0109 -0.168966 6.68581e-20)
(30.0111 -0.169863 2.1462e-20)
(30.0114 -0.170768 -9.42127e-20)
(30.0117 -0.17168 2.96868e-20)
(30.0119 -0.172599 -2.61825e-20)
(30.0122 -0.173524 9.09998e-20)
(30.0125 -0.174455 -7.42468e-20)
(30.0127 -0.175394 1.86263e-20)
(30.013 -0.17634 -1.7203e-20)
(30.0133 -0.177292 9.01602e-20)
(30.0136 -0.17825 -4.0638e-20)
(30.0139 -0.179213 4.25751e-20)
(30.0142 -0.180181 -1.00472e-19)
(30.0145 -0.181154 -4.33096e-20)
(30.0148 -0.182131 3.0765e-20)
(30.0151 -0.183114 3.42764e-20)
(30.0155 -0.184102 3.24362e-20)
(30.0158 -0.185095 2.39785e-20)
(30.0161 -0.186091 -1.12244e-19)
(30.0165 -0.18709 6.42319e-20)
(30.0168 -0.188092 -3.61125e-20)
(30.0171 -0.189096 3.65823e-20)
(30.0175 -0.190103 3.87401e-20)
(30.0178 -0.191111 -9.59483e-20)
(30.0182 -0.192122 1.18328e-19)
(30.0185 -0.193135 -3.61788e-20)
(30.0189 -0.194149 -3.75881e-20)
(30.0192 -0.195163 4.90169e-20)
(30.0196 -0.196177 -5.75174e-20)
(30.02 -0.19719 -2.44144e-20)
(30.0203 -0.198203 2.37882e-20)
(30.0207 -0.199214 4.99509e-20)
(30.0211 -0.200223 -2.71643e-20)
(30.0215 -0.20123 1.47103e-20)
(30.0218 -0.202235 -2.13086e-20)
(30.0222 -0.203237 1.40809e-21)
(30.0226 -0.204236 -4.5409e-20)
(30.023 -0.205231 5.79129e-20)
(30.0234 -0.206221 -1.87547e-20)
(30.0238 -0.207206 5.57434e-20)
(30.0241 -0.208185 -4.04063e-20)
(30.0245 -0.209158 -2.53286e-20)
(30.0249 -0.210126 9.35256e-22)
(30.0253 -0.211088 -7.64689e-21)
(30.0257 -0.212043 -1.28971e-20)
(30.0261 -0.212988 5.95426e-21)
(30.0265 -0.213923 -1.05388e-20)
(30.0268 -0.214848 2.12165e-20)
(30.0272 -0.215763 3.62566e-20)
(30.0276 -0.216673 -1.9958e-20)
(30.028 -0.217576 4.06761e-20)
(30.0284 -0.218469 -2.5612e-20)
(30.0287 -0.219349 1.28035e-20)
(30.0291 -0.22021 -2.48978e-20)
(30.0295 -0.221055 -2.19447e-21)
(30.0298 -0.22189 2.08469e-20)
(30.0302 -0.22272 -4.2711e-20)
(30.0305 -0.223545 3.46217e-20)
(30.0309 -0.224359 1.23889e-20)
(30.0312 -0.225151 -4.3024e-20)
(30.0316 -0.225916 3.32727e-20)
(30.0319 -0.226659 -1.41231e-20)
(30.0322 -0.227391 -1.07604e-20)
(30.0325 -0.228123 -8.28005e-21)
(30.0329 -0.228856 3.36176e-21)
(30.0332 -0.229579 -7.92972e-21)
(30.0335 -0.230272 1.63413e-20)
(30.0338 -0.230928 -5.38325e-21)
(30.0341 -0.23155 1.68195e-20)
(30.0343 -0.232159 -2.24704e-20)
(30.0346 -0.232773 1.3374e-20)
(30.0349 -0.233396 1.2826e-20)
(30.0351 -0.234015 -1.94589e-20)
(30.0354 -0.234607 8.69893e-21)
(30.0356 -0.235155 -1.01134e-21)
(30.0359 -0.235662 3.61527e-22)
(30.0361 -0.236145 -1.06734e-20)
(30.0363 -0.236629 2.6963e-20)
(30.0365 -0.237122 -2.27083e-20)
(30.0367 -0.237619 1.10403e-20)
(30.0369 -0.2381 1.51029e-21)
(30.0371 -0.238546 -3.76404e-22)
(30.0373 -0.238953 -8.69398e-22)
(30.0374 -0.23933 -8.09648e-21)
(30.0376 -0.239694 7.07474e-21)
(30.0377 -0.240058 2.31577e-21)
(30.0379 -0.240423 -6.99372e-21)
(30.038 -0.24078 -2.35895e-22)
(30.0382 -0.241117 1.93317e-21)
(30.0383 -0.241429 3.50838e-21)
(30.0384 -0.241715 1.07017e-22)
(30.0385 -0.241983 -1.94307e-21)
(30.0386 -0.242241 1.33506e-22)
(30.0387 -0.242491 -2.86545e-22)
(30.0388 -0.242733 -2.62614e-21)
(30.0388 -0.242962 8.33892e-21)
(30.0389 -0.243175 -3.84508e-21)
(30.039 -0.243373 -1.1495e-21)
(30.039 -0.243555 5.84233e-22)
(30.0391 -0.243725 1.75128e-21)
(30.0391 -0.243884 -9.89483e-23)
(30.0392 -0.244032 -1.46326e-21)
(30.0392 -0.24417 -2.98849e-22)
(30.0392 -0.244296 1.33243e-21)
(30.0393 -0.24441 -4.53015e-22)
(30.0393 -0.244512 1.33714e-22)
(30.0393 -0.244603 -1.85593e-22)
(30.0393 -0.244682 -8.55072e-23)
(30.0393 -0.244752 2.009e-22)
(30.0393 -0.24481 -1.40337e-22)
(30.0393 -0.244858 -5.59832e-23)
(30.0394 -0.244893 1.04052e-22)
(30.0394 -0.244916 -1.80731e-23)
(30.0394 -0.244927 -1.2456e-23)
(29.9945 -0.133713 2.60867e-20)
(29.9946 -0.134188 -3.60349e-20)
(29.9947 -0.13467 -1.40592e-20)
(29.9949 -0.135158 3.66338e-20)
(29.995 -0.135654 -1.32258e-20)
(29.9951 -0.136157 1.32084e-20)
(29.9952 -0.136667 -3.47429e-20)
(29.9953 -0.137184 1.78863e-20)
(29.9955 -0.137709 3.10008e-20)
(29.9956 -0.138241 -5.21732e-20)
(29.9957 -0.138781 8.58743e-20)
(29.9959 -0.139329 -8.51769e-20)
(29.996 -0.139884 5.02615e-20)
(29.9961 -0.140447 -3.78524e-20)
(29.9963 -0.141017 3.99505e-22)
(29.9964 -0.141596 5.85433e-20)
(29.9966 -0.142182 -1.13154e-19)
(29.9967 -0.142777 6.05428e-20)
(29.9969 -0.14338 5.92463e-21)
(29.9971 -0.14399 -1.34288e-21)
(29.9972 -0.14461 -3.05989e-20)
(29.9974 -0.145237 -1.57504e-20)
(29.9976 -0.145872 -3.16024e-20)
(29.9977 -0.146515 9.20501e-20)
(29.9979 -0.147168 -7.04717e-21)
(29.9981 -0.147828 3.49618e-20)
(29.9983 -0.148497 -5.45336e-20)
(29.9985 -0.149175 1.63819e-20)
(29.9986 -0.149861 -3.45776e-20)
(29.9988 -0.150556 4.05574e-20)
(29.999 -0.151259 4.07548e-20)
(29.9992 -0.15197 -5.62645e-20)
(29.9994 -0.152691 -2.74995e-20)
(29.9997 -0.15342 4.36249e-20)
(29.9999 -0.154158 -8.69573e-20)
(30.0001 -0.154904 1.19835e-19)
(30.0003 -0.155659 -4.73909e-20)
(30.0005 -0.156422 4.53357e-20)
(30.0008 -0.157195 9.4838e-21)
(30.001 -0.157975 -5.53606e-20)
(30.0013 -0.158765 8.42715e-21)
(30.0015 -0.159563 1.20805e-20)
(30.0018 -0.160369 -1.31643e-21)
(30.002 -0.161184 -6.951e-20)
(30.0023 -0.162007 7.43479e-20)
(30.0025 -0.162839 -1.40633e-20)
(30.0028 -0.163679 7.34217e-21)
(30.0031 -0.164527 1.54586e-20)
(30.0034 -0.165384 -3.65244e-20)
(30.0037 -0.166248 4.94276e-20)
(30.004 -0.16712 -3.66065e-20)
(30.0043 -0.167999 -1.14698e-20)
(30.0046 -0.168887 3.40209e-20)
(30.0049 -0.169783 1.33915e-20)
(30.0052 -0.170686 -3.25006e-20)
(30.0055 -0.171596 -1.74783e-20)
(30.0058 -0.172513 -4.97693e-20)
(30.0062 -0.173436 3.40084e-20)
(30.0065 -0.174367 -5.56334e-20)
(30.0068 -0.175304 9.7085e-20)
(30.0072 -0.176248 7.54921e-21)
(30.0075 -0.177199 -1.19028e-19)
(30.0079 -0.178156 1.37901e-19)
(30.0083 -0.179118 -1.07214e-19)
(30.0086 -0.180084 1.50077e-20)
(30.009 -0.181056 6.08867e-20)
(30.0094 -0.182032 -6.12627e-20)
(30.0098 -0.183014 7.39249e-20)
(30.0102 -0.184002 -1.20579e-19)
(30.0106 -0.184994 6.41788e-20)
(30.011 -0.185989 5.39834e-20)
(30.0114 -0.186987 -5.69718e-20)
(30.0118 -0.187987 1.13847e-19)
(30.0122 -0.18899 -3.07604e-20)
(30.0127 -0.189995 2.10216e-20)
(30.0131 -0.191003 -1.20852e-19)
(30.0135 -0.192014 2.30571e-20)
(30.014 -0.193026 -4.4799e-20)
(30.0144 -0.19404 9.28647e-20)
(30.0149 -0.195053 -1.02588e-19)
(30.0153 -0.196066 9.70582e-20)
(30.0158 -0.197078 -4.5286e-20)
(30.0163 -0.198089 8.29138e-20)
(30.0167 -0.199098 -1.22612e-19)
(30.0172 -0.200107 9.20536e-20)
(30.0177 -0.201115 -4.44035e-21)
(30.0181 -0.202119 -1.05748e-19)
(30.0186 -0.203121 1.5587e-19)
(30.0191 -0.204119 -8.32528e-20)
(30.0196 -0.205112 -1.71858e-20)
(30.0201 -0.206101 4.83206e-20)
(30.0206 -0.207085 -2.29755e-20)
(30.0211 -0.208064 -1.53942e-20)
(30.0215 -0.209037 5.97247e-20)
(30.022 -0.210004 -6.68875e-20)
(30.0225 -0.210964 2.04587e-21)
(30.023 -0.211917 -3.29547e-20)
(30.0235 -0.212862 6.62478e-20)
(30.024 -0.213798 3.71748e-21)
(30.0245 -0.214723 -1.17492e-20)
(30.025 -0.215638 -5.81108e-21)
(30.0255 -0.216545 -3.0804e-20)
(30.026 -0.217445 7.88663e-21)
(30.0265 -0.218338 3.32333e-20)
(30.0269 -0.219219 -5.98252e-20)
(30.0274 -0.220084 4.73006e-20)
(30.0279 -0.220931 1.61921e-20)
(30.0284 -0.221763 -2.66671e-20)
(30.0288 -0.222586 3.57435e-20)
(30.0293 -0.223405 -1.06658e-21)
(30.0297 -0.224219 -3.06931e-20)
(30.0302 -0.225019 2.06155e-20)
(30.0306 -0.225796 1.38433e-20)
(30.0311 -0.226545 -1.98583e-20)
(30.0315 -0.227271 4.53929e-21)
(30.0319 -0.227989 -9.26405e-21)
(30.0323 -0.228708 -5.61076e-21)
(30.0328 -0.229428 -2.72702e-20)
(30.0332 -0.230136 5.26054e-20)
(30.0336 -0.230813 2.51673e-21)
(30.0339 -0.231451 -2.42534e-20)
(30.0343 -0.232058 4.37963e-21)
(30.0347 -0.232652 -2.10101e-20)
(30.035 -0.233254 2.38379e-20)
(30.0354 -0.233864 1.98049e-20)
(30.0357 -0.234469 -1.98747e-20)
(30.0361 -0.235043 1.62403e-20)
(30.0364 -0.235574 -5.73188e-21)
(30.0367 -0.236064 -1.99721e-20)
(30.037 -0.236535 -5.50923e-21)
(30.0372 -0.237007 -1.03595e-21)
(30.0375 -0.237489 3.43067e-21)
(30.0378 -0.237974 2.0001e-20)
(30.0381 -0.238439 -2.252e-20)
(30.0383 -0.238869 4.62991e-21)
(30.0385 -0.239261 -2.61642e-21)
(30.0388 -0.239624 6.02173e-21)
(30.039 -0.239978 5.75535e-21)
(30.0392 -0.240332 -6.93785e-21)
(30.0394 -0.240687 5.54149e-21)
(30.0396 -0.241032 -6.58969e-21)
(30.0397 -0.241357 5.42381e-21)
(30.0399 -0.241656 -3.02159e-21)
(30.04 -0.24193 -5.29234e-22)
(30.0402 -0.242189 -8.54244e-22)
(30.0403 -0.242437 5.21873e-22)
(30.0404 -0.242679 5.95691e-22)
(30.0406 -0.242912 -1.7878e-21)
(30.0407 -0.243132 3.44226e-21)
(30.0408 -0.243336 1.8858e-23)
(30.0409 -0.243525 9.63092e-22)
(30.0409 -0.243699 -2.40078e-21)
(30.041 -0.243862 1.1101e-21)
(30.0411 -0.244014 5.75437e-22)
(30.0411 -0.244156 -2.43181e-21)
(30.0412 -0.244287 2.24939e-21)
(30.0413 -0.244407 -1.08854e-22)
(30.0413 -0.244515 -9.4902e-22)
(30.0413 -0.244611 -3.99686e-22)
(30.0414 -0.244697 -2.7927e-22)
(30.0414 -0.244772 3.13442e-23)
(30.0414 -0.244836 1.29662e-22)
(30.0414 -0.244891 -1.59803e-22)
(30.0414 -0.244934 -9.9416e-23)
(30.0414 -0.244965 -6.20634e-23)
(30.0414 -0.244983 -2.68142e-23)
(30.0414 -0.244992 -1.1853e-23)
(29.9884 -0.135411 -5.49398e-20)
(29.9885 -0.135875 -3.20117e-20)
(29.9886 -0.136345 7.28938e-20)
(29.9888 -0.136821 -3.76271e-20)
(29.9889 -0.137305 5.15492e-21)
(29.989 -0.137796 8.44845e-21)
(29.9892 -0.138294 7.77521e-21)
(29.9893 -0.138799 3.23665e-20)
(29.9894 -0.139312 -8.58121e-20)
(29.9896 -0.139832 2.34362e-20)
(29.9897 -0.140359 2.91905e-20)
(29.9899 -0.140895 5.98854e-21)
(29.9901 -0.141437 -5.80465e-21)
(29.9902 -0.141988 5.12131e-20)
(29.9904 -0.142546 -5.49983e-20)
(29.9905 -0.143111 1.41224e-20)
(29.9907 -0.143685 2.304e-20)
(29.9909 -0.144267 -4.48929e-20)
(29.9911 -0.144857 -2.78466e-20)
(29.9912 -0.145455 7.24944e-20)
(29.9914 -0.146061 -8.29962e-20)
(29.9916 -0.146676 7.50062e-20)
(29.9918 -0.147298 -1.70229e-20)
(29.992 -0.147929 -6.3808e-21)
(29.9922 -0.148568 -6.87126e-20)
(29.9924 -0.149215 3.85612e-21)
(29.9926 -0.149872 9.98301e-20)
(29.9928 -0.150537 -8.03479e-20)
(29.993 -0.15121 -1.6656e-21)
(29.9932 -0.151891 3.30107e-20)
(29.9935 -0.152582 4.0958e-20)
(29.9937 -0.153281 1.51419e-20)
(29.9939 -0.153988 -3.32067e-20)
(29.9942 -0.154705 -6.48002e-20)
(29.9944 -0.15543 5.58688e-20)
(29.9947 -0.156163 2.23641e-20)
(29.9949 -0.156906 -3.25351e-20)
(29.9952 -0.157657 -6.08201e-20)
(29.9955 -0.158416 3.97435e-20)
(29.9957 -0.159185 7.36946e-20)
(29.996 -0.159962 -3.0071e-20)
(29.9963 -0.160747 4.26941e-20)
(29.9966 -0.161542 -1.35243e-19)
(29.9969 -0.162344 3.9921e-20)
(29.9972 -0.163156 3.47396e-20)
(29.9975 -0.163975 -1.55167e-20)
(29.9978 -0.164803 -5.62696e-21)
(29.9981 -0.165639 3.38404e-20)
(29.9984 -0.166484 -1.38428e-20)
(29.9987 -0.167336 -2.98805e-20)
(29.9991 -0.168197 3.73134e-20)
(29.9994 -0.169065 -1.39671e-20)
(29.9998 -0.169941 5.29275e-20)
(30.0001 -0.170825 -4.82816e-20)
(30.0005 -0.171716 -4.88813e-23)
(30.0009 -0.172615 4.47608e-20)
(30.0012 -0.17352 2.40833e-20)
(30.0016 -0.174433 -4.76158e-20)
(30.002 -0.175353 -5.5851e-20)
(30.0024 -0.176279 3.14384e-20)
(30.0028 -0.177213 4.65197e-20)
(30.0032 -0.178152 -4.46705e-20)
(30.0036 -0.179097 -4.8327e-20)
(30.0041 -0.180047 5.19576e-20)
(30.0045 -0.181002 -3.99444e-20)
(30.0049 -0.181963 -1.5509e-20)
(30.0054 -0.18293 7.63726e-20)
(30.0058 -0.183902 -4.30594e-20)
(30.0063 -0.184879 -1.38252e-20)
(30.0067 -0.185859 -6.80493e-20)
(30.0072 -0.186842 1.14347e-19)
(30.0077 -0.187828 3.80094e-20)
(30.0082 -0.188817 3.40576e-20)
(30.0087 -0.189808 1.75685e-20)
(30.0092 -0.190803 -1.6408e-19)
(30.0097 -0.191801 1.84023e-20)