/*--------------------------------*- C++ -*----------------------------------*\
  =========                 |
  \\      /  F ield         | OpenFOAM: The Open Source CFD Toolbox
   \\    /   O peration     | Website:  https://openfoam.org
    \\  /    A nd           | Version:  13
     \\/     M anipulation  |
\*---------------------------------------------------------------------------*/
FoamFile
{
    format      ascii;
    class       volScalarField;
    location    "0.25";
    object      nut;
}
// * * * * * * * * * * * * * * * * * * * * * * * * * * * * * * * * * * * * * //

dimensions      [0 2 -1 0 0 0 0];

internalField   nonuniform List<scalar> 
68864
(
3.16248e-06
3.16251e-06
3.16254e-06
3.16257e-06
3.1626e-06
3.16263e-06
3.16266e-06
3.1627e-06
3.16273e-06
3.16276e-06
3.1628e-06
3.16283e-06
3.16286e-06
3.1629e-06
3.16293e-06
3.16297e-06
3.16301e-06
3.16304e-06
3.16308e-06
3.16312e-06
3.16315e-06
3.16319e-06
3.16323e-06
3.16327e-06
3.16331e-06
3.16335e-06
3.16339e-06
3.16343e-06
3.16347e-06
3.16352e-06
3.16356e-06
3.1636e-06
3.16365e-06
3.16369e-06
3.16374e-06
3.16378e-06
3.16383e-06
3.16387e-06
3.16392e-06
3.16397e-06
3.16402e-06
3.16406e-06
3.16411e-06
3.16416e-06
3.16421e-06
3.16426e-06
3.16432e-06
3.16437e-06
3.16442e-06
3.16447e-06
3.16453e-06
3.16458e-06
3.16464e-06
3.16469e-06
3.16475e-06
3.1648e-06
3.16486e-06
3.16492e-06
3.16498e-06
3.16504e-06
3.1651e-06
3.16516e-06
3.16522e-06
3.16528e-06
3.16534e-06
3.1654e-06
3.16547e-06
3.16553e-06
3.16559e-06
3.16566e-06
3.16572e-06
3.16579e-06
3.16586e-06
3.16592e-06
3.16599e-06
3.16606e-06
3.16613e-06
3.1662e-06
3.16627e-06
3.16634e-06
3.16641e-06
3.16648e-06
3.16656e-06
3.16663e-06
3.1667e-06
3.16678e-06
3.16685e-06
3.16693e-06
3.16701e-06
3.16708e-06
3.16716e-06
3.16724e-06
3.16732e-06
3.1674e-06
3.16748e-06
3.16756e-06
3.16764e-06
3.16772e-06
3.1678e-06
3.16789e-06
3.16797e-06
3.16805e-06
3.16814e-06
3.16822e-06
3.16831e-06
3.1684e-06
3.16849e-06
3.16857e-06
3.16866e-06
3.16875e-06
3.16884e-06
3.16894e-06
3.16903e-06
3.16912e-06
3.16922e-06
3.16931e-06
3.16941e-06
3.1695e-06
3.1696e-06
3.1697e-06
3.1698e-06
3.1699e-06
3.17e-06
3.1701e-06
3.17021e-06
3.17031e-06
3.17042e-06
3.17053e-06
3.17064e-06
3.17075e-06
3.17086e-06
3.17097e-06
3.17108e-06
3.1712e-06
3.17132e-06
3.17144e-06
3.17156e-06
3.17168e-06
3.1718e-06
3.17193e-06
3.17206e-06
3.17219e-06
3.17232e-06
3.17245e-06
3.17259e-06
3.17273e-06
3.17287e-06
3.17301e-06
3.17316e-06
3.17331e-06
3.17346e-06
3.17361e-06
3.17377e-06
3.17393e-06
3.17409e-06
3.17426e-06
3.17443e-06
3.1746e-06
3.17478e-06
3.17495e-06
3.17514e-06
3.17532e-06
3.17551e-06
3.1757e-06
3.1759e-06
3.1761e-06
3.1763e-06
3.16028e-06
3.16029e-06
3.1603e-06
3.16032e-06
3.16033e-06
3.16035e-06
3.16036e-06
3.16038e-06
3.16039e-06
3.16041e-06
3.16042e-06
3.16044e-06
3.16045e-06
3.16047e-06
3.16049e-06
3.16051e-06
3.16052e-06
3.16054e-06
3.16056e-06
3.16058e-06
3.16059e-06
3.16061e-06
3.16063e-06
3.16065e-06
3.16067e-06
3.16069e-06
3.16071e-06
3.16073e-06
3.16075e-06
3.16077e-06
3.1608e-06
3.16082e-06
3.16084e-06
3.16086e-06
3.16088e-06
3.16091e-06
3.16093e-06
3.16096e-06
3.16098e-06
3.161e-06
3.16103e-06
3.16106e-06
3.16108e-06
3.16111e-06
3.16113e-06
3.16116e-06
3.16119e-06
3.16122e-06
3.16125e-06
3.16128e-06
3.1613e-06
3.16133e-06
3.16137e-06
3.1614e-06
3.16143e-06
3.16146e-06
3.16149e-06
3.16153e-06
3.16156e-06
3.16159e-06
3.16163e-06
3.16166e-06
3.1617e-06
3.16174e-06
3.16177e-06
3.16181e-06
3.16185e-06
3.16189e-06
3.16193e-06
3.16197e-06
3.16201e-06
3.16205e-06
3.16209e-06
3.16213e-06
3.16218e-06
3.16222e-06
3.16227e-06
3.16231e-06
3.16236e-06
3.16241e-06
3.16245e-06
3.1625e-06
3.16255e-06
3.1626e-06
3.16265e-06
3.16271e-06
3.16276e-06
3.16281e-06
3.16287e-06
3.16292e-06
3.16298e-06
3.16304e-06
3.1631e-06
3.16316e-06
3.16322e-06
3.16328e-06
3.16334e-06
3.16341e-06
3.16347e-06
3.16354e-06
3.16361e-06
3.16367e-06
3.16374e-06
3.16382e-06
3.16389e-06
3.16396e-06
3.16404e-06
3.16411e-06
3.16419e-06
3.16427e-06
3.16435e-06
3.16443e-06
3.16451e-06
3.1646e-06
3.16468e-06
3.16477e-06
3.16486e-06
3.16495e-06
3.16504e-06
3.16514e-06
3.16523e-06
3.16533e-06
3.16543e-06
3.16553e-06
3.16563e-06
3.16574e-06
3.16585e-06
3.16595e-06
3.16606e-06
3.16618e-06
3.16629e-06
3.16641e-06
3.16653e-06
3.16665e-06
3.16678e-06
3.1669e-06
3.16703e-06
3.16716e-06
3.1673e-06
3.16744e-06
3.16757e-06
3.16772e-06
3.16786e-06
3.16801e-06
3.16816e-06
3.16832e-06
3.16847e-06
3.16864e-06
3.1688e-06
3.16897e-06
3.16914e-06
3.16931e-06
3.16949e-06
3.16968e-06
3.16986e-06
3.17006e-06
3.17025e-06
3.17045e-06
3.17066e-06
3.17087e-06
3.17108e-06
3.1713e-06
3.17153e-06
3.17176e-06
3.172e-06
3.17224e-06
3.17249e-06
3.1592e-06
3.15921e-06
3.15922e-06
3.15922e-06
3.15923e-06
3.15924e-06
3.15925e-06
3.15925e-06
3.15926e-06
3.15927e-06
3.15928e-06
3.15929e-06
3.1593e-06
3.1593e-06
3.15931e-06
3.15932e-06
3.15933e-06
3.15934e-06
3.15935e-06
3.15936e-06
3.15937e-06
3.15938e-06
3.15939e-06
3.1594e-06
3.15941e-06
3.15942e-06
3.15943e-06
3.15944e-06
3.15945e-06
3.15946e-06
3.15947e-06
3.15948e-06
3.15949e-06
3.15951e-06
3.15952e-06
3.15953e-06
3.15954e-06
3.15955e-06
3.15957e-06
3.15958e-06
3.15959e-06
3.15961e-06
3.15962e-06
3.15963e-06
3.15965e-06
3.15966e-06
3.15968e-06
3.15969e-06
3.15971e-06
3.15972e-06
3.15974e-06
3.15975e-06
3.15977e-06
3.15978e-06
3.1598e-06
3.15982e-06
3.15984e-06
3.15985e-06
3.15987e-06
3.15989e-06
3.15991e-06
3.15992e-06
3.15994e-06
3.15996e-06
3.15998e-06
3.16e-06
3.16002e-06
3.16004e-06
3.16006e-06
3.16009e-06
3.16011e-06
3.16013e-06
3.16015e-06
3.16017e-06
3.1602e-06
3.16022e-06
3.16024e-06
3.16027e-06
3.16029e-06
3.16032e-06
3.16034e-06
3.16037e-06
3.1604e-06
3.16042e-06
3.16045e-06
3.16048e-06
3.16051e-06
3.16054e-06
3.16057e-06
3.1606e-06
3.16063e-06
3.16066e-06
3.16069e-06
3.16072e-06
3.16075e-06
3.16079e-06
3.16082e-06
3.16086e-06
3.16089e-06
3.16093e-06
3.16096e-06
3.161e-06
3.16104e-06
3.16108e-06
3.16112e-06
3.16116e-06
3.1612e-06
3.16124e-06
3.16128e-06
3.16132e-06
3.16137e-06
3.16141e-06
3.16146e-06
3.16151e-06
3.16155e-06
3.1616e-06
3.16165e-06
3.1617e-06
3.16175e-06
3.1618e-06
3.16186e-06
3.16191e-06
3.16196e-06
3.16202e-06
3.16208e-06
3.16214e-06
3.1622e-06
3.16226e-06
3.16232e-06
3.16238e-06
3.16245e-06
3.16251e-06
3.16258e-06
3.16265e-06
3.16272e-06
3.16279e-06
3.16286e-06
3.16294e-06
3.16301e-06
3.16309e-06
3.16317e-06
3.16325e-06
3.16334e-06
3.16342e-06
3.16351e-06
3.1636e-06
3.16369e-06
3.16378e-06
3.16388e-06
3.16397e-06
3.16407e-06
3.16418e-06
3.16428e-06
3.16439e-06
3.1645e-06
3.16461e-06
3.16473e-06
3.16485e-06
3.16497e-06
3.16509e-06
3.16522e-06
3.16536e-06
3.16549e-06
3.16563e-06
3.16578e-06
3.16593e-06
3.16608e-06
3.15904e-06
3.15905e-06
3.15905e-06
3.15906e-06
3.15907e-06
3.15908e-06
3.15909e-06
3.1591e-06
3.15911e-06
3.15912e-06
3.15912e-06
3.15913e-06
3.15914e-06
3.15915e-06
3.15916e-06
3.15917e-06
3.15918e-06
3.15919e-06
3.15921e-06
3.15922e-06
3.15923e-06
3.15924e-06
3.15925e-06
3.15926e-06
3.15927e-06
3.15929e-06
3.1593e-06
3.15931e-06
3.15932e-06
3.15933e-06
3.15935e-06
3.15936e-06
3.15937e-06
3.15939e-06
3.1594e-06
3.15942e-06
3.15943e-06
3.15944e-06
3.15946e-06
3.15947e-06
3.15949e-06
3.1595e-06
3.15952e-06
3.15954e-06
3.15955e-06
3.15957e-06
3.15959e-06
3.1596e-06
3.15962e-06
3.15964e-06
3.15966e-06
3.15967e-06
3.15969e-06
3.15971e-06
3.15973e-06
3.15975e-06
3.15977e-06
3.15979e-06
3.15981e-06
3.15983e-06
3.15985e-06
3.15987e-06
3.1599e-06
3.15992e-06
3.15994e-06
3.15996e-06
3.15999e-06
3.16001e-06
3.16004e-06
3.16006e-06
3.16008e-06
3.16011e-06
3.16014e-06
3.16016e-06
3.16019e-06
3.16022e-06
3.16024e-06
3.16027e-06
3.1603e-06
3.16033e-06
3.16036e-06
3.16039e-06
3.16042e-06
3.16045e-06
3.16048e-06
3.16052e-06
3.16055e-06
3.16058e-06
3.16062e-06
3.16065e-06
3.16069e-06
3.16072e-06
3.16076e-06
3.1608e-06
3.16083e-06
3.16087e-06
3.16091e-06
3.16095e-06
3.16099e-06
3.16103e-06
3.16107e-06
3.16112e-06
3.16116e-06
3.1612e-06
3.16125e-06
3.16129e-06
3.16134e-06
3.16139e-06
3.16144e-06
3.16149e-06
3.16154e-06
3.16159e-06
3.16164e-06
3.16169e-06
3.16174e-06
3.1618e-06
3.16185e-06
3.16191e-06
3.16196e-06
3.16202e-06
3.16208e-06
3.16214e-06
3.1622e-06
3.16226e-06
3.16233e-06
3.16239e-06
3.16246e-06
3.16252e-06
3.16259e-06
3.16266e-06
3.16273e-06
3.1628e-06
3.16287e-06
3.16295e-06
3.16302e-06
3.1631e-06
3.16317e-06
3.16325e-06
3.16333e-06
3.16341e-06
3.1635e-06
3.16358e-06
3.16366e-06
3.16375e-06
3.16384e-06
3.16393e-06
3.16402e-06
3.16411e-06
3.1642e-06
3.1643e-06
3.1644e-06
3.1645e-06
3.16459e-06
3.1647e-06
3.1648e-06
3.1649e-06
3.16501e-06
3.16512e-06
3.16523e-06
3.16534e-06
3.16545e-06
3.16557e-06
3.16569e-06
3.16581e-06
3.16593e-06
3.16605e-06
3.16618e-06
3.15864e-06
3.15865e-06
3.15865e-06
3.15866e-06
3.15866e-06
3.15867e-06
3.15868e-06
3.15868e-06
3.15869e-06
3.1587e-06
3.1587e-06
3.15871e-06
3.15872e-06
3.15872e-06
3.15873e-06
3.15874e-06
3.15875e-06
3.15875e-06
3.15876e-06
3.15877e-06
3.15878e-06
3.15878e-06
3.15879e-06
3.1588e-06
3.15881e-06
3.15882e-06
3.15883e-06
3.15884e-06
3.15885e-06
3.15885e-06
3.15886e-06
3.15887e-06
3.15888e-06
3.15889e-06
3.1589e-06
3.15891e-06
3.15892e-06
3.15893e-06
3.15895e-06
3.15896e-06
3.15897e-06
3.15898e-06
3.15899e-06
3.159e-06
3.15901e-06
3.15903e-06
3.15904e-06
3.15905e-06
3.15906e-06
3.15908e-06
3.15909e-06
3.1591e-06
3.15912e-06
3.15913e-06
3.15915e-06
3.15916e-06
3.15918e-06
3.15919e-06
3.15921e-06
3.15922e-06
3.15924e-06
3.15925e-06
3.15927e-06
3.15929e-06
3.1593e-06
3.15932e-06
3.15934e-06
3.15936e-06
3.15938e-06
3.1594e-06
3.15942e-06
3.15943e-06
3.15945e-06
3.15948e-06
3.1595e-06
3.15952e-06
3.15954e-06
3.15956e-06
3.15958e-06
3.15961e-06
3.15963e-06
3.15965e-06
3.15968e-06
3.1597e-06
3.15973e-06
3.15975e-06
3.15978e-06
3.15981e-06
3.15983e-06
3.15986e-06
3.15989e-06
3.15992e-06
3.15995e-06
3.15998e-06
3.16001e-06
3.16004e-06
3.16007e-06
3.16011e-06
3.16014e-06
3.16017e-06
3.16021e-06
3.16024e-06
3.16028e-06
3.16032e-06
3.16036e-06
3.16039e-06
3.16043e-06
3.16047e-06
3.16052e-06
3.16056e-06
3.1606e-06
3.16064e-06
3.16069e-06
3.16074e-06
3.16078e-06
3.16083e-06
3.16088e-06
3.16093e-06
3.16098e-06
3.16103e-06
3.16109e-06
3.16114e-06
3.1612e-06
3.16125e-06
3.16131e-06
3.16137e-06
3.16143e-06
3.16149e-06
3.16156e-06
3.16162e-06
3.16169e-06
3.16176e-06
3.16183e-06
3.1619e-06
3.16197e-06
3.16205e-06
3.16212e-06
3.1622e-06
3.16228e-06
3.16236e-06
3.16244e-06
3.16253e-06
3.16262e-06
3.16271e-06
3.1628e-06
3.16289e-06
3.16299e-06
3.16308e-06
3.16318e-06
3.16329e-06
3.16339e-06
3.1635e-06
3.16361e-06
3.16372e-06
3.16383e-06
3.16395e-06
3.16407e-06
3.16419e-06
3.16432e-06
3.16444e-06
3.16457e-06
3.16471e-06
3.16484e-06
3.16498e-06
3.16512e-06
3.16527e-06
3.16542e-06
3.15837e-06
3.15838e-06
3.15838e-06
3.15839e-06
3.15839e-06
3.1584e-06
3.1584e-06
3.15841e-06
3.15842e-06
3.15842e-06
3.15843e-06
3.15843e-06
3.15844e-06
3.15845e-06
3.15845e-06
3.15846e-06
3.15847e-06
3.15847e-06
3.15848e-06
3.15849e-06
3.1585e-06
3.1585e-06
3.15851e-06
3.15852e-06
3.15853e-06
3.15853e-06
3.15854e-06
3.15855e-06
3.15856e-06
3.15857e-06
3.15857e-06
3.15858e-06
3.15859e-06
3.1586e-06
3.15861e-06
3.15862e-06
3.15863e-06
3.15864e-06
3.15865e-06
3.15866e-06
3.15867e-06
3.15868e-06
3.15869e-06
3.1587e-06
3.15871e-06
3.15872e-06
3.15873e-06
3.15874e-06
3.15876e-06
3.15877e-06
3.15878e-06
3.15879e-06
3.1588e-06
3.15882e-06
3.15883e-06
3.15884e-06
3.15886e-06
3.15887e-06
3.15888e-06
3.1589e-06
3.15891e-06
3.15893e-06
3.15894e-06
3.15896e-06
3.15897e-06
3.15899e-06
3.15901e-06
3.15902e-06
3.15904e-06
3.15906e-06
3.15907e-06
3.15909e-06
3.15911e-06
3.15913e-06
3.15915e-06
3.15917e-06
3.15918e-06
3.1592e-06
3.15922e-06
3.15925e-06
3.15927e-06
3.15929e-06
3.15931e-06
3.15933e-06
3.15935e-06
3.15938e-06
3.1594e-06
3.15943e-06
3.15945e-06
3.15947e-06
3.1595e-06
3.15953e-06
3.15955e-06
3.15958e-06
3.15961e-06
3.15964e-06
3.15966e-06
3.15969e-06
3.15972e-06
3.15975e-06
3.15979e-06
3.15982e-06
3.15985e-06
3.15988e-06
3.15992e-06
3.15995e-06
3.15999e-06
3.16002e-06
3.16006e-06
3.1601e-06
3.16013e-06
3.16017e-06
3.16021e-06
3.16025e-06
3.1603e-06
3.16034e-06
3.16038e-06
3.16043e-06
3.16047e-06
3.16052e-06
3.16056e-06
3.16061e-06
3.16066e-06
3.16071e-06
3.16076e-06
3.16082e-06
3.16087e-06
3.16093e-06
3.16098e-06
3.16104e-06
3.1611e-06
3.16116e-06
3.16122e-06
3.16129e-06
3.16135e-06
3.16142e-06
3.16149e-06
3.16155e-06
3.16163e-06
3.1617e-06
3.16177e-06
3.16185e-06
3.16193e-06
3.16201e-06
3.16209e-06
3.16218e-06
3.16226e-06
3.16235e-06
3.16244e-06
3.16254e-06
3.16263e-06
3.16273e-06
3.16283e-06
3.16293e-06
3.16304e-06
3.16315e-06
3.16326e-06
3.16338e-06
3.1635e-06
3.16362e-06
3.16374e-06
3.16387e-06
3.164e-06
3.16414e-06
3.16428e-06
3.16442e-06
3.16457e-06
3.15802e-06
3.15802e-06
3.15802e-06
3.15803e-06
3.15803e-06
3.15804e-06
3.15804e-06
3.15804e-06
3.15805e-06
3.15805e-06
3.15806e-06
3.15806e-06
3.15807e-06
3.15807e-06
3.15808e-06
3.15808e-06
3.15809e-06
3.15809e-06
3.1581e-06
3.1581e-06
3.15811e-06
3.15811e-06
3.15812e-06
3.15812e-06
3.15813e-06
3.15813e-06
3.15814e-06
3.15815e-06
3.15815e-06
3.15816e-06
3.15816e-06
3.15817e-06
3.15818e-06
3.15818e-06
3.15819e-06
3.1582e-06
3.1582e-06
3.15821e-06
3.15822e-06
3.15823e-06
3.15823e-06
3.15824e-06
3.15825e-06
3.15826e-06
3.15826e-06
3.15827e-06
3.15828e-06
3.15829e-06
3.1583e-06
3.15831e-06
3.15832e-06
3.15833e-06
3.15834e-06
3.15835e-06
3.15836e-06
3.15837e-06
3.15838e-06
3.15839e-06
3.1584e-06
3.15841e-06
3.15842e-06
3.15843e-06
3.15844e-06
3.15845e-06
3.15847e-06
3.15848e-06
3.15849e-06
3.1585e-06
3.15852e-06
3.15853e-06
3.15854e-06
3.15856e-06
3.15857e-06
3.15859e-06
3.1586e-06
3.15862e-06
3.15863e-06
3.15865e-06
3.15867e-06
3.15868e-06
3.1587e-06
3.15872e-06
3.15873e-06
3.15875e-06
3.15877e-06
3.15879e-06
3.15881e-06
3.15883e-06
3.15885e-06
3.15887e-06
3.15889e-06
3.15891e-06
3.15894e-06
3.15896e-06
3.15898e-06
3.15901e-06
3.15903e-06
3.15906e-06
3.15908e-06
3.15911e-06
3.15913e-06
3.15916e-06
3.15919e-06
3.15922e-06
3.15925e-06
3.15928e-06
3.15931e-06
3.15934e-06
3.15937e-06
3.15941e-06
3.15944e-06
3.15947e-06
3.15951e-06
3.15955e-06
3.15958e-06
3.15962e-06
3.15966e-06
3.1597e-06
3.15974e-06
3.15979e-06
3.15983e-06
3.15987e-06
3.15992e-06
3.15996e-06
3.16001e-06
3.16006e-06
3.16011e-06
3.16016e-06
3.16022e-06
3.16027e-06
3.16033e-06
3.16038e-06
3.16044e-06
3.1605e-06
3.16056e-06
3.16063e-06
3.16069e-06
3.16076e-06
3.16083e-06
3.1609e-06
3.16097e-06
3.16104e-06
3.16112e-06
3.16119e-06
3.16127e-06
3.16136e-06
3.16144e-06
3.16153e-06
3.16161e-06
3.16171e-06
3.1618e-06
3.16189e-06
3.16199e-06
3.16209e-06
3.1622e-06
3.16231e-06
3.16242e-06
3.16253e-06
3.16264e-06
3.16276e-06
3.16289e-06
3.16301e-06
3.16314e-06
3.16328e-06
3.16341e-06
3.16355e-06
3.1637e-06
3.15774e-06
3.15775e-06
3.15775e-06
3.15775e-06
3.15776e-06
3.15776e-06
3.15776e-06
3.15777e-06
3.15777e-06
3.15777e-06
3.15778e-06
3.15778e-06
3.15778e-06
3.15779e-06
3.15779e-06
3.15779e-06
3.1578e-06
3.1578e-06
3.15781e-06
3.15781e-06
3.15781e-06
3.15782e-06
3.15782e-06
3.15783e-06
3.15783e-06
3.15783e-06
3.15784e-06
3.15784e-06
3.15785e-06
3.15785e-06
3.15786e-06
3.15786e-06
3.15787e-06
3.15787e-06
3.15788e-06
3.15788e-06
3.15789e-06
3.15789e-06
3.1579e-06
3.15791e-06
3.15791e-06
3.15792e-06
3.15792e-06
3.15793e-06
3.15794e-06
3.15794e-06
3.15795e-06
3.15796e-06
3.15796e-06
3.15797e-06
3.15798e-06
3.15798e-06
3.15799e-06
3.158e-06
3.15801e-06
3.15801e-06
3.15802e-06
3.15803e-06
3.15804e-06
3.15805e-06
3.15806e-06
3.15806e-06
3.15807e-06
3.15808e-06
3.15809e-06
3.1581e-06
3.15811e-06
3.15812e-06
3.15813e-06
3.15814e-06
3.15815e-06
3.15816e-06
3.15818e-06
3.15819e-06
3.1582e-06
3.15821e-06
3.15822e-06
3.15824e-06
3.15825e-06
3.15826e-06
3.15828e-06
3.15829e-06
3.1583e-06
3.15832e-06
3.15833e-06
3.15835e-06
3.15836e-06
3.15838e-06
3.1584e-06
3.15841e-06
3.15843e-06
3.15845e-06
3.15847e-06
3.15848e-06
3.1585e-06
3.15852e-06
3.15854e-06
3.15856e-06
3.15858e-06
3.1586e-06
3.15863e-06
3.15865e-06
3.15867e-06
3.15869e-06
3.15872e-06
3.15874e-06
3.15877e-06
3.1588e-06
3.15882e-06
3.15885e-06
3.15888e-06
3.15891e-06
3.15894e-06
3.15897e-06
3.159e-06
3.15903e-06
3.15906e-06
3.1591e-06
3.15913e-06
3.15917e-06
3.15921e-06
3.15924e-06
3.15928e-06
3.15932e-06
3.15936e-06
3.15941e-06
3.15945e-06
3.15949e-06
3.15954e-06
3.15959e-06
3.15964e-06
3.15969e-06
3.15974e-06
3.15979e-06
3.15985e-06
3.1599e-06
3.15996e-06
3.16002e-06
3.16008e-06
3.16014e-06
3.16021e-06
3.16028e-06
3.16035e-06
3.16042e-06
3.16049e-06
3.16057e-06
3.16064e-06
3.16072e-06
3.16081e-06
3.16089e-06
3.16098e-06
3.16107e-06
3.16116e-06
3.16126e-06
3.16136e-06
3.16146e-06
3.16157e-06
3.16168e-06
3.16179e-06
3.16191e-06
3.16203e-06
3.16215e-06
3.16228e-06
3.16241e-06
3.16254e-06
3.16268e-06
3.16283e-06
3.15748e-06
3.15749e-06
3.15749e-06
3.15749e-06
3.15749e-06
3.15749e-06
3.1575e-06
3.1575e-06
3.1575e-06
3.1575e-06
3.15751e-06
3.15751e-06
3.15751e-06
3.15751e-06
3.15751e-06
3.15752e-06
3.15752e-06
3.15752e-06
3.15752e-06
3.15753e-06
3.15753e-06
3.15753e-06
3.15754e-06
3.15754e-06
3.15754e-06
3.15754e-06
3.15755e-06
3.15755e-06
3.15755e-06
3.15756e-06
3.15756e-06
3.15756e-06
3.15757e-06
3.15757e-06
3.15757e-06
3.15758e-06
3.15758e-06
3.15759e-06
3.15759e-06
3.15759e-06
3.1576e-06
3.1576e-06
3.15761e-06
3.15761e-06
3.15761e-06
3.15762e-06
3.15762e-06
3.15763e-06
3.15763e-06
3.15764e-06
3.15764e-06
3.15765e-06
3.15765e-06
3.15766e-06
3.15766e-06
3.15767e-06
3.15768e-06
3.15768e-06
3.15769e-06
3.15769e-06
3.1577e-06
3.15771e-06
3.15771e-06
3.15772e-06
3.15773e-06
3.15773e-06
3.15774e-06
3.15775e-06
3.15776e-06
3.15776e-06
3.15777e-06
3.15778e-06
3.15779e-06
3.1578e-06
3.15781e-06
3.15782e-06
3.15783e-06
3.15783e-06
3.15784e-06
3.15785e-06
3.15787e-06
3.15788e-06
3.15789e-06
3.1579e-06
3.15791e-06
3.15792e-06
3.15793e-06
3.15795e-06
3.15796e-06
3.15797e-06
3.15799e-06
3.158e-06
3.15801e-06
3.15803e-06
3.15804e-06
3.15806e-06
3.15807e-06
3.15809e-06
3.15811e-06
3.15812e-06
3.15814e-06
3.15816e-06
3.15818e-06
3.1582e-06
3.15822e-06
3.15824e-06
3.15826e-06
3.15828e-06
3.1583e-06
3.15833e-06
3.15835e-06
3.15837e-06
3.1584e-06
3.15842e-06
3.15845e-06
3.15848e-06
3.15851e-06
3.15853e-06
3.15856e-06
3.1586e-06
3.15863e-06
3.15866e-06
3.15869e-06
3.15873e-06
3.15876e-06
3.1588e-06
3.15884e-06
3.15888e-06
3.15892e-06
3.15896e-06
3.159e-06
3.15904e-06
3.15909e-06
3.15914e-06
3.15919e-06
3.15924e-06
3.15929e-06
3.15934e-06
3.1594e-06
3.15945e-06
3.15951e-06
3.15957e-06
3.15963e-06
3.1597e-06
3.15977e-06
3.15983e-06
3.15991e-06
3.15998e-06
3.16006e-06
3.16013e-06
3.16022e-06
3.1603e-06
3.16039e-06
3.16048e-06
3.16057e-06
3.16067e-06
3.16077e-06
3.16087e-06
3.16098e-06
3.16109e-06
3.1612e-06
3.16132e-06
3.16145e-06
3.16157e-06
3.16171e-06
3.16184e-06
3.16198e-06
3.1573e-06
3.1573e-06
3.1573e-06
3.1573e-06
3.1573e-06
3.1573e-06
3.15731e-06
3.15731e-06
3.15731e-06
3.15731e-06
3.15731e-06
3.15731e-06
3.15731e-06
3.15731e-06
3.15732e-06
3.15732e-06
3.15732e-06
3.15732e-06
3.15732e-06
3.15732e-06
3.15732e-06
3.15733e-06
3.15733e-06
3.15733e-06
3.15733e-06
3.15733e-06
3.15733e-06
3.15734e-06
3.15734e-06
3.15734e-06
3.15734e-06
3.15734e-06
3.15735e-06
3.15735e-06
3.15735e-06
3.15735e-06
3.15735e-06
3.15736e-06
3.15736e-06
3.15736e-06
3.15736e-06
3.15737e-06
3.15737e-06
3.15737e-06
3.15737e-06
3.15738e-06
3.15738e-06
3.15738e-06
3.15739e-06
3.15739e-06
3.15739e-06
3.1574e-06
3.1574e-06
3.1574e-06
3.15741e-06
3.15741e-06
3.15741e-06
3.15742e-06
3.15742e-06
3.15743e-06
3.15743e-06
3.15743e-06
3.15744e-06
3.15744e-06
3.15745e-06
3.15745e-06
3.15746e-06
3.15746e-06
3.15747e-06
3.15747e-06
3.15748e-06
3.15748e-06
3.15749e-06
3.15749e-06
3.1575e-06
3.15751e-06
3.15751e-06
3.15752e-06
3.15753e-06
3.15753e-06
3.15754e-06
3.15755e-06
3.15756e-06
3.15756e-06
3.15757e-06
3.15758e-06
3.15759e-06
3.1576e-06
3.15761e-06
3.15762e-06
3.15763e-06
3.15764e-06
3.15765e-06
3.15766e-06
3.15767e-06
3.15768e-06
3.15769e-06
3.15771e-06
3.15772e-06
3.15773e-06
3.15775e-06
3.15776e-06
3.15777e-06
3.15779e-06
3.15781e-06
3.15782e-06
3.15784e-06
3.15785e-06
3.15787e-06
3.15789e-06
3.15791e-06
3.15793e-06
3.15795e-06
3.15797e-06
3.15799e-06
3.15801e-06
3.15804e-06
3.15806e-06
3.15808e-06
3.15811e-06
3.15813e-06
3.15816e-06
3.15819e-06
3.15822e-06
3.15825e-06
3.15828e-06
3.15831e-06
3.15834e-06
3.15838e-06
3.15841e-06
3.15845e-06
3.15849e-06
3.15853e-06
3.15857e-06
3.15861e-06
3.15865e-06
3.1587e-06
3.15875e-06
3.15879e-06
3.15884e-06
3.1589e-06
3.15895e-06
3.15901e-06
3.15906e-06
3.15912e-06
3.15919e-06
3.15925e-06
3.15932e-06
3.15939e-06
3.15946e-06
3.15953e-06
3.15961e-06
3.15969e-06
3.15977e-06
3.15986e-06
3.15995e-06
3.16004e-06
3.16014e-06
3.16024e-06
3.16034e-06
3.16045e-06
3.16056e-06
3.16068e-06
3.1608e-06
3.16093e-06
3.16106e-06
3.1612e-06
3.15719e-06
3.15719e-06
3.15719e-06
3.15719e-06
3.15719e-06
3.15719e-06
3.15719e-06
3.15719e-06
3.15719e-06
3.15719e-06
3.15719e-06
3.15719e-06
3.15719e-06
3.1572e-06
3.1572e-06
3.1572e-06
3.1572e-06
3.1572e-06
3.1572e-06
3.1572e-06
3.1572e-06
3.1572e-06
3.1572e-06
3.1572e-06
3.1572e-06
3.1572e-06
3.1572e-06
3.1572e-06
3.1572e-06
3.1572e-06
3.1572e-06
3.1572e-06
3.1572e-06
3.15721e-06
3.15721e-06
3.15721e-06
3.15721e-06
3.15721e-06
3.15721e-06
3.15721e-06
3.15721e-06
3.15721e-06
3.15721e-06
3.15722e-06
3.15722e-06
3.15722e-06
3.15722e-06
3.15722e-06
3.15722e-06
3.15723e-06
3.15723e-06
3.15723e-06
3.15723e-06
3.15723e-06
3.15724e-06
3.15724e-06
3.15724e-06
3.15724e-06
3.15724e-06
3.15725e-06
3.15725e-06
3.15725e-06
3.15725e-06
3.15726e-06
3.15726e-06
3.15726e-06
3.15727e-06
3.15727e-06
3.15727e-06
3.15728e-06
3.15728e-06
3.15728e-06
3.15729e-06
3.15729e-06
3.15729e-06
3.1573e-06
3.1573e-06
3.15731e-06
3.15731e-06
3.15732e-06
3.15732e-06
3.15733e-06
3.15733e-06
3.15734e-06
3.15734e-06
3.15735e-06
3.15736e-06
3.15736e-06
3.15737e-06
3.15737e-06
3.15738e-06
3.15739e-06
3.1574e-06
3.1574e-06
3.15741e-06
3.15742e-06
3.15743e-06
3.15744e-06
3.15745e-06
3.15746e-06
3.15746e-06
3.15747e-06
3.15749e-06
3.1575e-06
3.15751e-06
3.15752e-06
3.15753e-06
3.15754e-06
3.15756e-06
3.15757e-06
3.15758e-06
3.1576e-06
3.15761e-06
3.15763e-06
3.15765e-06
3.15766e-06
3.15768e-06
3.1577e-06
3.15772e-06
3.15774e-06
3.15776e-06
3.15778e-06
3.1578e-06
3.15782e-06
3.15785e-06
3.15787e-06
3.1579e-06
3.15792e-06
3.15795e-06
3.15798e-06
3.15801e-06
3.15804e-06
3.15808e-06
3.15811e-06
3.15814e-06
3.15818e-06
3.15822e-06
3.15826e-06
3.1583e-06
3.15834e-06
3.15839e-06
3.15843e-06
3.15848e-06
3.15853e-06
3.15858e-06
3.15864e-06
3.15869e-06
3.15875e-06
3.15882e-06
3.15888e-06
3.15895e-06
3.15901e-06
3.15909e-06
3.15916e-06
3.15924e-06
3.15932e-06
3.15941e-06
3.1595e-06
3.15959e-06
3.15968e-06
3.15978e-06
3.15989e-06
3.16e-06
3.16011e-06
3.16023e-06
3.16035e-06
3.16048e-06
3.15728e-06
3.15728e-06
3.15728e-06
3.15728e-06
3.15728e-06
3.15728e-06
3.15728e-06
3.15728e-06
3.15728e-06
3.15728e-06
3.15728e-06
3.15728e-06
3.15728e-06
3.15728e-06
3.15728e-06
3.15728e-06
3.15728e-06
3.15728e-06
3.15728e-06
3.15728e-06
3.15728e-06
3.15728e-06
3.15729e-06
3.15729e-06
3.15729e-06
3.15729e-06
3.15729e-06
3.15729e-06
3.15729e-06
3.15729e-06
3.15729e-06
3.15729e-06
3.15729e-06
3.15729e-06
3.15729e-06
3.15729e-06
3.15729e-06
3.15729e-06
3.15729e-06
3.15729e-06
3.15729e-06
3.15729e-06
3.15729e-06
3.15729e-06
3.15729e-06
3.15729e-06
3.15729e-06
3.15729e-06
3.15729e-06
3.15729e-06
3.15729e-06
3.15729e-06
3.15729e-06
3.15729e-06
3.15729e-06
3.1573e-06
3.1573e-06
3.1573e-06
3.1573e-06
3.1573e-06
3.1573e-06
3.1573e-06
3.1573e-06
3.1573e-06
3.1573e-06
3.1573e-06
3.1573e-06
3.1573e-06
3.1573e-06
3.1573e-06
3.1573e-06
3.1573e-06
3.1573e-06
3.1573e-06
3.1573e-06
3.1573e-06
3.1573e-06
3.1573e-06
3.1573e-06
3.1573e-06
3.15731e-06
3.15731e-06
3.15731e-06
3.15731e-06
3.15731e-06
3.15731e-06
3.15731e-06
3.15731e-06
3.15732e-06
3.15732e-06
3.15732e-06
3.15732e-06
3.15733e-06
3.15733e-06
3.15733e-06
3.15734e-06
3.15734e-06
3.15734e-06
3.15735e-06
3.15735e-06
3.15736e-06
3.15736e-06
3.15737e-06
3.15737e-06
3.15738e-06
3.15739e-06
3.15739e-06
3.1574e-06
3.15741e-06
3.15741e-06
3.15742e-06
3.15743e-06
3.15744e-06
3.15745e-06
3.15746e-06
3.15747e-06
3.15748e-06
3.15749e-06
3.1575e-06
3.15752e-06
3.15753e-06
3.15755e-06
3.15756e-06
3.15758e-06
3.15759e-06
3.15761e-06
3.15763e-06
3.15765e-06
3.15767e-06
3.15769e-06
3.15771e-06
3.15773e-06
3.15776e-06
3.15778e-06
3.15781e-06
3.15784e-06
3.15787e-06
3.1579e-06
3.15793e-06
3.15797e-06
3.158e-06
3.15804e-06
3.15808e-06
3.15812e-06
3.15816e-06
3.15821e-06
3.15826e-06
3.15831e-06
3.15836e-06
3.15841e-06
3.15847e-06
3.15853e-06
3.15859e-06
3.15866e-06
3.15873e-06
3.1588e-06
3.15887e-06
3.15895e-06
3.15904e-06
3.15912e-06
3.15921e-06
3.15931e-06
3.15941e-06
3.15951e-06
3.15962e-06
3.15974e-06
3.15986e-06
3.15745e-06
3.15745e-06
3.15745e-06
3.15745e-06
3.15745e-06
3.15745e-06
3.15745e-06
3.15745e-06
3.15745e-06
3.15746e-06
3.15746e-06
3.15746e-06
3.15746e-06
3.15746e-06
3.15746e-06
3.15746e-06
3.15746e-06
3.15746e-06
3.15746e-06
3.15746e-06
3.15746e-06
3.15746e-06
3.15746e-06
3.15746e-06
3.15746e-06
3.15746e-06
3.15746e-06
3.15747e-06
3.15747e-06
3.15747e-06
3.15747e-06
3.15747e-06
3.15747e-06
3.15747e-06
3.15747e-06
3.15747e-06
3.15747e-06
3.15747e-06
3.15747e-06
3.15747e-06
3.15747e-06
3.15747e-06
3.15748e-06
3.15748e-06
3.15748e-06
3.15748e-06
3.15748e-06
3.15748e-06
3.15748e-06
3.15748e-06
3.15748e-06
3.15748e-06
3.15748e-06
3.15748e-06
3.15748e-06
3.15748e-06
3.15749e-06
3.15749e-06
3.15749e-06
3.15749e-06
3.15749e-06
3.15749e-06
3.15749e-06
3.15749e-06
3.15749e-06
3.15749e-06
3.15749e-06
3.15749e-06
3.15749e-06
3.15749e-06
3.15749e-06
3.15749e-06
3.15749e-06
3.15749e-06
3.15749e-06
3.15749e-06
3.15749e-06
3.15749e-06
3.15749e-06
3.15749e-06
3.15749e-06
3.15749e-06
3.15749e-06
3.15749e-06
3.15749e-06
3.15749e-06
3.15749e-06
3.15749e-06
3.15749e-06
3.15749e-06
3.15749e-06
3.15749e-06
3.15749e-06
3.15749e-06
3.15749e-06
3.15749e-06
3.15749e-06
3.15749e-06
3.15749e-06
3.15749e-06
3.15749e-06
3.15749e-06
3.15749e-06
3.15749e-06
3.15749e-06
3.15749e-06
3.15749e-06
3.15749e-06
3.15749e-06
3.15749e-06
3.15749e-06
3.15749e-06
3.15749e-06
3.15749e-06
3.15749e-06
3.15749e-06
3.15749e-06
3.15749e-06
3.15749e-06
3.15749e-06
3.1575e-06
3.1575e-06
3.1575e-06
3.15751e-06
3.15751e-06
3.15752e-06
3.15753e-06
3.15754e-06
3.15755e-06
3.15756e-06
3.15757e-06
3.15758e-06
3.1576e-06
3.15761e-06
3.15763e-06
3.15765e-06
3.15767e-06
3.15769e-06
3.15771e-06
3.15773e-06
3.15776e-06
3.15778e-06
3.15781e-06
3.15784e-06
3.15787e-06
3.15791e-06
3.15794e-06
3.15798e-06
3.15802e-06
3.15807e-06
3.15811e-06
3.15816e-06
3.15821e-06
3.15827e-06
3.15833e-06
3.15839e-06
3.15845e-06
3.15852e-06
3.15859e-06
3.15867e-06
3.15874e-06
3.15883e-06
3.15892e-06
3.15901e-06
3.15911e-06
3.15921e-06
3.15932e-06
3.15765e-06
3.15765e-06
3.15765e-06
3.15765e-06
3.15765e-06
3.15765e-06
3.15765e-06
3.15766e-06
3.15766e-06
3.15766e-06
3.15766e-06
3.15766e-06
3.15766e-06
3.15766e-06
3.15766e-06
3.15766e-06
3.15766e-06
3.15766e-06
3.15766e-06
3.15767e-06
3.15767e-06
3.15767e-06
3.15767e-06
3.15767e-06
3.15767e-06
3.15767e-06
3.15767e-06
3.15767e-06
3.15767e-06
3.15768e-06
3.15768e-06
3.15768e-06
3.15768e-06
3.15768e-06
3.15768e-06
3.15768e-06
3.15768e-06
3.15768e-06
3.15769e-06
3.15769e-06
3.15769e-06
3.15769e-06
3.15769e-06
3.15769e-06
3.15769e-06
3.15769e-06
3.1577e-06
3.1577e-06
3.1577e-06
3.1577e-06
3.1577e-06
3.1577e-06
3.1577e-06
3.15771e-06
3.15771e-06
3.15771e-06
3.15771e-06
3.15771e-06
3.15771e-06
3.15771e-06
3.15771e-06
3.15772e-06
3.15772e-06
3.15772e-06
3.15772e-06
3.15772e-06
3.15772e-06
3.15772e-06
3.15773e-06
3.15773e-06
3.15773e-06
3.15773e-06
3.15773e-06
3.15773e-06
3.15773e-06
3.15773e-06
3.15773e-06
3.15774e-06
3.15774e-06
3.15774e-06
3.15774e-06
3.15774e-06
3.15774e-06
3.15774e-06
3.15774e-06
3.15774e-06
3.15774e-06
3.15774e-06
3.15774e-06
3.15774e-06
3.15774e-06
3.15774e-06
3.15774e-06
3.15774e-06
3.15774e-06
3.15774e-06
3.15774e-06
3.15774e-06
3.15774e-06
3.15774e-06
3.15774e-06
3.15774e-06
3.15774e-06
3.15774e-06
3.15773e-06
3.15773e-06
3.15773e-06
3.15773e-06
3.15773e-06
3.15772e-06
3.15772e-06
3.15772e-06
3.15772e-06
3.15771e-06
3.15771e-06
3.15771e-06
3.15771e-06
3.1577e-06
3.1577e-06
3.1577e-06
3.15769e-06
3.15769e-06
3.15769e-06
3.15768e-06
3.15768e-06
3.15768e-06
3.15767e-06
3.15767e-06
3.15767e-06
3.15767e-06
3.15767e-06
3.15766e-06
3.15766e-06
3.15766e-06
3.15766e-06
3.15767e-06
3.15767e-06
3.15767e-06
3.15768e-06
3.15768e-06
3.15769e-06
3.1577e-06
3.15771e-06
3.15772e-06
3.15774e-06
3.15776e-06
3.15778e-06
3.1578e-06
3.15783e-06
3.15786e-06
3.15789e-06
3.15792e-06
3.15796e-06
3.158e-06
3.15804e-06
3.15809e-06
3.15814e-06
3.1582e-06
3.15825e-06
3.15832e-06
3.15838e-06
3.15845e-06
3.15853e-06
3.15861e-06
3.15869e-06
3.15879e-06
3.15888e-06
3.15786e-06
3.15786e-06
3.15787e-06
3.15787e-06
3.15787e-06
3.15787e-06
3.15787e-06
3.15787e-06
3.15787e-06
3.15787e-06
3.15787e-06
3.15787e-06
3.15788e-06
3.15788e-06
3.15788e-06
3.15788e-06
3.15788e-06
3.15788e-06
3.15788e-06
3.15788e-06
3.15789e-06
3.15789e-06
3.15789e-06
3.15789e-06
3.15789e-06
3.15789e-06
3.15789e-06
3.15789e-06
3.1579e-06
3.1579e-06
3.1579e-06
3.1579e-06
3.1579e-06
3.1579e-06
3.15791e-06
3.15791e-06
3.15791e-06
3.15791e-06
3.15791e-06
3.15791e-06
3.15792e-06
3.15792e-06
3.15792e-06
3.15792e-06
3.15792e-06
3.15792e-06
3.15793e-06
3.15793e-06
3.15793e-06
3.15793e-06
3.15793e-06
3.15794e-06
3.15794e-06
3.15794e-06
3.15794e-06
3.15794e-06
3.15795e-06
3.15795e-06
3.15795e-06
3.15795e-06
3.15795e-06
3.15796e-06
3.15796e-06
3.15796e-06
3.15796e-06
3.15797e-06
3.15797e-06
3.15797e-06
3.15797e-06
3.15797e-06
3.15798e-06
3.15798e-06
3.15798e-06
3.15798e-06
3.15798e-06
3.15799e-06
3.15799e-06
3.15799e-06
3.15799e-06
3.15799e-06
3.158e-06
3.158e-06
3.158e-06
3.158e-06
3.158e-06
3.158e-06
3.15801e-06
3.15801e-06
3.15801e-06
3.15801e-06
3.15801e-06
3.15801e-06
3.15801e-06
3.15802e-06
3.15802e-06
3.15802e-06
3.15802e-06
3.15802e-06
3.15802e-06
3.15802e-06
3.15802e-06
3.15802e-06
3.15802e-06
3.15802e-06
3.15802e-06
3.15802e-06
3.15802e-06
3.15802e-06
3.15801e-06
3.15801e-06
3.15801e-06
3.15801e-06
3.15801e-06
3.158e-06
3.158e-06
3.158e-06
3.158e-06
3.15799e-06
3.15799e-06
3.15798e-06
3.15798e-06
3.15797e-06
3.15797e-06
3.15796e-06
3.15796e-06
3.15795e-06
3.15795e-06
3.15794e-06
3.15793e-06
3.15793e-06
3.15792e-06