/*--------------------------------*- C++ -*----------------------------------*\
  =========                 |
  \\      /  F ield         | OpenFOAM: The Open Source CFD Toolbox
   \\    /   O peration     | Website:  https://openfoam.org
    \\  /    A nd           | Version:  13
     \\/     M anipulation  |
\*---------------------------------------------------------------------------*/
FoamFile
{
    format      ascii;
    class       volScalarField;
    location    "0.25";
    object      p;
}
// * * * * * * * * * * * * * * * * * * * * * * * * * * * * * * * * * * * * * //

dimensions      [0 2 -2 0 0 0 0];

internalField   nonuniform List<scalar> 
68864
(
0.371301
0.369848
0.368236
0.366439
0.364632
0.362861
0.361091
0.359299
0.35749
0.35567
0.35384
0.351998
0.350142
0.348273
0.346391
0.344496
0.342586
0.340662
0.338724
0.33677
0.334801
0.332817
0.330817
0.3288
0.326767
0.324717
0.322649
0.320563
0.318458
0.316335
0.314193
0.312032
0.30985
0.307648
0.305425
0.30318
0.300914
0.298626
0.296315
0.293981
0.291624
0.289243
0.286838
0.284408
0.281953
0.279473
0.276967
0.274434
0.271876
0.269291
0.266679
0.264039
0.261373
0.258678
0.255956
0.253206
0.250428
0.247621
0.244787
0.241924
0.239033
0.236114
0.233168
0.230193
0.227191
0.224163
0.221107
0.218025
0.214917
0.211784
0.208626
0.205444
0.202238
0.19901
0.195761
0.19249
0.1892
0.185892
0.182565
0.179223
0.175866
0.172495
0.169112
0.165718
0.162315
0.158905
0.155489
0.15207
0.148648
0.145227
0.141807
0.138391
0.134981
0.131579
0.128188
0.124809
0.121444
0.118096
0.114768
0.111461
0.108177
0.10492
0.10169
0.0984913
0.0953251
0.0921938
0.0890996
0.0860446
0.0830309
0.0800605
0.0771355
0.0742575
0.0714286
0.0686504
0.0659246
0.0632527
0.0606362
0.0580764
0.0555746
0.0531318
0.0507492
0.0484274
0.0461675
0.04397
0.0418354
0.039764
0.0377562
0.0358121
0.0339317
0.0321148
0.0303613
0.0286708
0.0270427
0.0254766
0.0239716
0.0225271
0.021142
0.0198153
0.018546
0.0173328
0.0161745
0.0150698
0.0140171
0.013015
0.012062
0.0111564
0.0102967
0.00948099
0.00870765
0.00797487
0.00728084
0.00662366
0.00600136
0.00541185
0.00485253
0.0043215
0.00381778
0.00333993
0.00288618
0.00245478
0.00204412
0.00165285
0.00128034
0.000926688
0.000595066
0.00029192
4.53247e-05
0.636029
0.634331
0.632343
0.630137
0.627929
0.625756
0.623566
0.621335
0.619073
0.616785
0.614471
0.612128
0.609756
0.607354
0.604922
0.602458
0.599963
0.597435
0.594874
0.592279
0.589649
0.586984
0.584283
0.581544
0.578768
0.575953
0.573099
0.570205
0.567269
0.564292
0.561271
0.558207
0.555098
0.551944
0.548744
0.545496
0.5422
0.538855
0.535461
0.532015
0.528518
0.524969
0.521366
0.517708
0.513996
0.510228
0.506403
0.502521
0.498581
0.494582
0.490523
0.486404
0.482225
0.477984
0.473681
0.469316
0.464888
0.460397
0.455842
0.451224
0.446542
0.441796
0.436987
0.432113
0.427176
0.422176
0.417113
0.411987
0.406799
0.401549
0.396239
0.39087
0.385441
0.379956
0.374414
0.368817
0.363167
0.357465
0.351714
0.345915
0.34007
0.334181
0.328251
0.322283
0.316279
0.310241
0.304173
0.298079
0.29196
0.285821
0.279665
0.273495
0.267316
0.26113
0.254943
0.248758
0.24258
0.236411
0.230258
0.224124
0.218013
0.21193
0.20588
0.199866
0.193894
0.187968
0.182093
0.176272
0.17051
0.164812
0.159181
0.153622
0.148139
0.142736
0.137417
0.132184
0.127043
0.121995
0.117045
0.112194
0.107446
0.102804
0.098269
0.0938438
0.0895302
0.0853297
0.0812438
0.0772736
0.0734199
0.0696833
0.0660643
0.062563
0.0591794
0.0559129
0.0527632
0.0497293
0.0468103
0.0440048
0.0413115
0.0387286
0.0362542
0.0338864
0.0316228
0.0294611
0.0273987
0.0254329
0.0235608
0.0217795
0.0200859
0.0184767
0.0169487
0.0154984
0.0141224
0.0128173
0.01158
0.0104062
0.00929137
0.00823137
0.00722269
0.00626165
0.00534446
0.00446792
0.00362825
0.00282745
0.00205691
0.00135745
0.000548295
0.952077
0.949793
0.947131
0.944236
0.941337
0.938453
0.935526
0.932536
0.929491
0.926401
0.923262
0.920071
0.916827
0.91353
0.91018
0.906774
0.903312
0.899793
0.896216
0.892581
0.888885
0.885127
0.881308
0.877425
0.873478
0.869466
0.865386
0.861239
0.857023
0.852736
0.848379
0.843948
0.839444
0.834865
0.83021
0.825477
0.820666
0.815774
0.810802
0.805748
0.80061
0.795387
0.790079
0.784684
0.779201
0.773628
0.767965
0.762211
0.756365
0.750425
0.744391
0.738262
0.732037
0.725715
0.719296
0.712779
0.706164
0.699449
0.692635
0.685721
0.678708
0.671594
0.664381
0.657067
0.649655
0.642143
0.634533
0.626825
0.61902
0.611119
0.603123
0.595034
0.586854
0.578582
0.570223
0.561778
0.553249
0.544638
0.535949
0.527184
0.518346
0.509439
0.500467
0.491432
0.48234
0.473194
0.463999
0.454759
0.44548
0.436165
0.426822
0.417454
0.408068
0.39867
0.389265
0.37986
0.370461
0.361074
0.351706
0.342363
0.333053
0.323782
0.314557
0.305385
0.296273
0.287227
0.278255
0.269364
0.260559
0.251849
0.243239
0.234736
0.226346
0.218076
0.209931
0.201918
0.19404
0.186305
0.178717
0.17128
0.163999
0.156878
0.14992
0.14313
0.13651
0.130063
0.123791
0.117696
0.11178
0.106043
0.100487
0.0951119
0.0899177
0.0849041
0.0800704
0.0754154
0.0709377
0.0666354
0.0625064
0.0585483
0.0547581
0.0511329
0.0476692
0.0443634
0.0412116
0.0382097
0.0353532
0.0326375
0.030058
0.0276096
0.0252872
0.0230854
0.0209989
0.019022
0.0171489
0.0153737
0.01369
0.0120921
0.0105737
0.00912894
0.00775154
0.00643495
0.00517385
0.00395761
0.00279032
0.00161185
0.000590258
1.21669
1.21386
1.21066
1.20725
1.20385
1.20044
1.19697
1.19343
1.18982
1.18616
1.18244
1.17865
1.1748
1.17088
1.16689
1.16284
1.15871
1.15452
1.15025
1.1459
1.14148
1.13699
1.13241
1.12775
1.12301
1.11819
1.11328
1.10829
1.10321
1.09803
1.09277
1.08741
1.08195
1.0764
1.07075
1.06499
1.05914
1.05318
1.04711
1.04094
1.03466
1.02826
1.02176
1.01514
1.0084
1.00154
0.994568
0.987472
0.980253
0.972911
0.965443
0.957848
0.950125
0.942273
0.934291
0.926177
0.917931
0.909552
0.901039
0.892392
0.88361
0.874692
0.865639
0.856451
0.847128
0.837669
0.828076
0.81835
0.80849
0.798499
0.788377
0.778126
0.767748
0.757245
0.746619
0.735872
0.725008
0.714029
0.702939
0.691741
0.680439
0.669038
0.657541
0.645954
0.634281
0.622529
0.610702
0.598806
0.586848
0.574834
0.562771
0.550666
0.538527
0.52636
0.514173
0.501976
0.489775
0.477579
0.465397
0.453237
0.441109
0.429022
0.416984
0.405004
0.393092
0.381258
0.36951
0.357857
0.346309
0.334874
0.323562
0.312382
0.301341
0.290449
0.279714
0.269142
0.258743
0.248523
0.23849
0.228649
0.219008
0.209571
0.200345
0.191333
0.182542
0.173974
0.165633
0.157523
0.149645
0.142001
0.134594
0.127424
0.120491
0.113796
0.107338
0.101116
0.0951275
0.0893715
0.0838452
0.0785456
0.0734693
0.0686125
0.063971
0.0595402
0.0553151
0.0512905
0.0474606
0.0438195
0.0403611
0.0370787
0.0339657
0.0310151
0.0282197
0.025572
0.0230644
0.0206891
0.018438
0.0163028
0.0142752
0.0123465
0.0105081
0.00875104
0.00706623
0.00544348
0.00387426
0.00234153
0.00082634
1.4887
1.48571
1.48229
1.47868
1.47505
1.4714
1.46767
1.46385
1.45995
1.45597
1.45191
1.44776
1.44353
1.43921
1.4348
1.43031
1.42571
1.42103
1.41624
1.41136
1.40638
1.40129
1.3961
1.39081
1.3854
1.37989
1.37426
1.36852
1.36265
1.35667
1.35057
1.34435
1.338
1.33152
1.32491
1.31816
1.31129
1.30427
1.29712
1.28983
1.28239
1.2748
1.26707
1.25919
1.25115
1.24297
1.23462
1.22612
1.21746
1.20863
1.19964
1.19049
1.18117
1.17168
1.16202
1.15219
1.14219
1.13202
1.12167
1.11115
1.10045
1.08958
1.07853
1.0673
1.0559
1.04432
1.03257
1.02064
1.00855
0.996277
0.983838
0.971231
0.958459
0.945523
0.932427
0.919174
0.905768
0.892211
0.878509
0.864666
0.850686
0.836576
0.822339
0.807983
0.793514
0.778939
0.764263
0.749496
0.734645
0.719717
0.704721
0.689667
0.674563
0.659419
0.644244
0.629049
0.613844
0.598639
0.583446
0.568275
0.553138
0.538046
0.52301
0.508042
0.493153
0.478356
0.463662
0.449083
0.434629
0.420314
0.406147
0.39214
0.378305
0.364652
0.35119
0.337931
0.324885
0.312059
0.299464
0.287109
0.275
0.263145
0.251552
0.240227
0.229175
0.218403
0.207914
0.197713
0.187802
0.178186
0.168866
0.159842
0.151117
0.142691
0.134561
0.126729
0.119191
0.111946
0.10499
0.0983206
0.0919326
0.0858217
0.0799828
0.0744102
0.0690978
0.0640389
0.0592265
0.0546533
0.0503115
0.0461928
0.0422889
0.0385909
0.0350898
0.0317761
0.0286403
0.0256723
0.0228619
0.0201986
0.0176718
0.0152704
0.0129831
0.0107982
0.0087039
0.0066879
0.00473609
0.00284077
0.000946732
1.74724
1.74378
1.73987
1.73579
1.73171
1.72758
1.72335
1.71902
1.7146
1.71009
1.70549
1.70079
1.696
1.6911
1.6861
1.68099
1.67578
1.67046
1.66503
1.65948
1.65382
1.64803
1.64213
1.6361
1.62995
1.62366
1.61725
1.61069
1.60401
1.59718
1.59021
1.5831
1.57583
1.56842
1.56085
1.55313
1.54525
1.53721
1.529
1.52062
1.51208
1.50336
1.49446
1.48539
1.47614
1.4667
1.45708
1.44727
1.43726
1.42707
1.41668
1.40609
1.3953
1.38431
1.37312
1.36172
1.35011
1.3383
1.32628
1.31404
1.3016
1.28894
1.27607
1.26299
1.2497
1.23619
1.22248
1.20855
1.19441
1.18007
1.16551
1.15076
1.1358
1.12064
1.10529
1.08975
1.07402
1.0581
1.04201
1.02574
1.00931
0.99271
0.975958
0.959058
0.942018
0.924845
0.907547
0.890134
0.872615
0.854998
0.837296
0.819517
0.801672
0.783774
0.765833
0.747862
0.729873
0.711879
0.693892
0.675926
0.657994
0.640109
0.622286
0.604538
0.586879
0.569323
0.551885
0.534577
0.517415
0.500411
0.48358
0.466935
0.450489
0.434255
0.418246
0.402473
0.38695
0.371686
0.356693
0.341981
0.32756
0.31344
0.299628
0.286132
0.272961
0.260119
0.247614
0.23545
0.223632
0.212162
0.201044
0.190279
0.179869
0.169814
0.160114
0.150768
0.141773
0.133128
0.124828
0.11687
0.109249
0.101959
0.0949943
0.0883487
0.0820148
0.0759846
0.07025
0.0648022
0.0596318
0.0547293
0.0500845
0.045687
0.0415257
0.0375897
0.0338671
0.0303462
0.0270147
0.0238598
0.0208686
0.0180278
0.0153235
0.0127414
0.0102668
0.00788356
0.00557803
0.00332372
0.00112437
1.99889
1.99529
1.99121
1.98696
1.9827
1.97839
1.97396
1.96941
1.96476
1.96001
1.95515
1.95017
1.94508
1.93987
1.93454
1.92909
1.92351
1.9178
1.91197
1.90599
1.89988
1.89363
1.88724
1.8807
1.87401
1.86717
1.86017
1.85302
1.8457
1.83821
1.83056
1.82273
1.81473
1.80655
1.79818
1.78963
1.78089
1.77196
1.76284
1.75351
1.74398
1.73424
1.7243
1.71414
1.70377
1.69318
1.68236
1.67132
1.66006
1.64856
1.63683
1.62486
1.61265
1.60021
1.58752
1.57458
1.5614
1.54797
1.53429
1.52035
1.50617
1.49173
1.47704
1.46209
1.44689
1.43144
1.41573
1.39977
1.38356
1.3671
1.35039
1.33344
1.31625
1.29882
1.28116
1.26327
1.24515
1.22681
1.20826
1.1895
1.17053
1.15138
1.13204
1.11252
1.09283
1.07298
1.05298
1.03284
1.01257
0.992182
0.97169
0.951105
0.930439
0.909706
0.88892
0.868094
0.847243
0.826382
0.805526
0.78469
0.76389
0.743143
0.722463
0.701869
0.681374
0.660997
0.640754
0.620661
0.600733
0.580989
0.561442
0.54211
0.523007
0.504149
0.48555
0.467225
0.449187
0.43145
0.414027
0.39693
0.380169
0.363757
0.347702
0.332014
0.316703
0.301774
0.287236
0.273094
0.259353
0.246018
0.233092
0.220576
0.208473
0.196784
0.185507
0.174642
0.164186
0.154137
0.144491
0.135243
0.126388
0.117919
0.10983
0.102113
0.0947594
0.0877605
0.0811067
0.0747879
0.0687932
0.0631115
0.0577309
0.0526394
0.0478243
0.0432724
0.0389703
0.034904
0.0310592
0.0274211
0.0239744
0.0207034
0.0175919
0.0146225
0.0117785
0.0090386
0.00639229
0.00378944
0.00130815
2.25046
2.24647
2.24198
2.23733
2.23269
2.22797
2.22311
2.21813
2.21303
2.20782
2.20248
2.19702
2.19143
2.1857
2.17985
2.17385
2.16771
2.16143
2.155
2.14842
2.14168
2.13479
2.12773
2.12051
2.11312
2.10556
2.09782
2.0899
2.0818
2.07351
2.06503
2.05635
2.04747
2.0384
2.02911
2.01961
2.0099
1.99997
1.98981
1.97943
1.96882
1.95797
1.94689
1.93556
1.92399
1.91216
1.90008
1.88775
1.87515
1.86229
1.84917
1.83577
1.8221
1.80815
1.79393
1.77942
1.76463
1.74956
1.7342
1.71855
1.70261
1.68637
1.66985
1.65303
1.63593
1.61853
1.60084
1.58286
1.56459
1.54604
1.5272
1.50808
1.48868
1.46901
1.44907
1.42886
1.4084
1.38768
1.36672
1.34551
1.32408
1.30242
1.28054
1.25847
1.23619
1.21373
1.1911
1.16831
1.14537
1.12229
1.09909
1.07579
1.05239
1.02891
1.00538
0.98179
0.958176
0.93455
0.910929
0.88733
0.863771
0.840272
0.816849
0.793522
0.77031
0.74723
0.724302
0.701544
0.678975
0.656614
0.634477
0.612584
0.590951
0.569596
0.548536
0.527787
0.507364
0.487282
0.467557
0.448201
0.429227
0.410649
0.392476
0.374721
0.357391
0.340497
0.324045
0.308042
0.292495
0.277408
0.262784
0.248627
0.234938
0.221717
0.208965
0.19668
0.184859
0.1735
0.162598
0.152148
0.142144
0.132578
0.123443
0.114731
0.106431
0.0985341
0.091029
0.0839043
0.0771478
0.0707467
0.0646877
0.0589571
0.0535404
0.0484227
0.0435888
0.0390228
0.0347083
0.0306285
0.026766
0.0231027
0.0196201
0.0162981
0.0131179
0.0100527
0.00709749
0.00417371
0.00146145
2.49446
2.49027
2.48553
2.48066
2.47579
2.47082
2.46571
2.46045
2.45507
2.44956
2.44391
2.43813
2.43219
2.42611
2.41988
2.4135
2.40696
2.40025
2.39338
2.38634
2.37913
2.37173
2.36416
2.3564
2.34845
2.34031
2.33196
2.32342
2.31466
2.3057
2.29652
2.28711
2.27748
2.26762
2.25753
2.2472
2.23662
2.22579
2.21471
2.20337
2.19177
2.17991
2.16777
2.15535
2.14266
2.12968
2.11641
2.10285
2.08899
2.07483
2.06036
2.04559
2.03051
2.01511
1.99939
1.98335
1.96699
1.9503
1.93329
1.91594
1.89827
1.88026
1.86192
1.84324
1.82424
1.8049
1.78522
1.76522
1.74489
1.72423
1.70325
1.68194
1.66033
1.63839
1.61616
1.59362
1.57078
1.54766
1.52426
1.50058
1.47664
1.45245
1.42802
1.40335
1.37846
1.35336
1.32807
1.30259
1.27695
1.25115
1.22522
1.19917
1.17301
1.14676
1.12045
1.09408
1.06769
1.04128
1.01487
0.988499
0.96217
0.935909
0.909736
0.883673
0.85774
0.831958
0.806348
0.780931
0.755728
0.73076
0.706046
0.681606
0.657461
0.633629
0.610128
0.586978
0.564195
0.541795
0.519795
0.498211
0.477056
0.456344
0.436087
0.416297
0.396985
0.37816
0.35983
0.342003
0.324686
0.307883
0.291599
0.275836
0.260597
0.245881
0.231689
0.218019
0.204868
0.192232
0.180107
0.168486
0.157364
0.146731
0.13658
0.126901
0.117683
0.108914
0.100584
0.0926778
0.0851834
0.0780861
0.0713711
0.0650229
0.0590254
0.0533622
0.0480161
0.0429692
0.0382035
0.0337
0.0294393
0.025401
0.0215644
0.0179066
0.0144071
0.011033
0.00778673
0.00455297
0.00163576
2.74195
2.73741
2.73228
2.72704
2.7218
2.71646
2.71094
2.70527
2.69947
2.69352
2.68742
2.68116
2.67475
2.66817
2.66143
2.65451
2.64742
2.64015
2.6327
2.62506
2.61723
2.6092
2.60097
2.59253
2.58388
2.57502
2.56593
2.55662
2.54708
2.5373
2.52728
2.51702
2.50651
2.49573
2.4847
2.4734
2.46183
2.44998
2.43785
2.42544
2.41272
2.39972
2.3864
2.37278
2.35885
2.3446
2.33003
2.31513
2.29989
2.28433
2.26842
2.25216
2.23556
2.21861
2.2013
2.18363
2.1656
2.14721
2.12845
2.10932
2.08982
2.06995
2.04971
2.0291
2.00811
1.98675
1.96502
1.94293
1.92046
1.89764
1.87445
1.8509
1.827
1.80276
1.77817
1.75325
1.728
1.70243
1.67656
1.65038
1.6239
1.59715
1.57013
1.54286
1.51534
1.48759
1.45963
1.43146
1.40312
1.37461
1.34595
1.31717
1.28827
1.25928
1.23021
1.2011
1.17196
1.14281
1.11367
1.08456
1.05552
1.02656
0.997695
0.968961
0.940378
0.911968
0.883755
0.85576
0.828008
0.800521
0.77332
0.746429
0.719867
0.693656
0.667817
0.642368
0.617329
0.592718
0.568552
0.544847
0.521619
0.498883
0.476651
0.454937
0.433752
0.413105
0.393006
0.373463
0.354482
0.336069
0.318228
0.300961
0.284271
0.268159
0.252622
0.23766
0.223269
0.209445
0.196183
0.183476
0.171316
0.159695
0.148602
0.138028
0.127961
0.118388
0.109296
0.10067
0.0924964
0.0847588
0.077441
0.070526
0.0639962
0.0578333
0.0520186
0.0465324
0.0413549
0.0364651
0.0318418
0.0274624
0.0233041
0.0193413
0.0155522
0.0118971
0.00838822
0.00486836
0.0017883
2.98476
2.97994
2.97449
2.96895
2.96341
2.95775
2.95191
2.94589
2.93973
2.93341
2.92692
2.92027
2.91343
2.90643
2.89923
2.89185
2.88428
2.87651
2.86854
2.86036
2.85197
2.84337
2.83454
2.82548
2.81619
2.80666
2.79689
2.78687
2.7766
2.76606
2.75525
2.74418
2.73283
2.72119
2.70926
2.69704
2.68451
2.67168
2.65853
2.64507
2.63128
2.61716
2.6027
2.5879
2.57275
2.55725
2.54139
2.52516
2.50857
2.4916
2.47426
2.45653
2.43841
2.41991
2.401
2.3817
2.362
2.34189
2.32138
2.30045
2.27911
2.25737
2.23521
2.21263
2.18965
2.16625
2.14244
2.11822
2.0936
2.06857
2.04314
2.01732
1.99111
1.96452
1.93755
1.91022
1.88252
1.85447
1.82608
1.79737
1.76833
1.73898
1.70935
1.67943
1.64926
1.61883
1.58818
1.55731
1.52624
1.495
1.4636
1.43207
1.40042
1.36867
1.33686
1.30499
1.27311
1.24122
1.20935
1.17753
1.14579
1.11414
1.08261
1.05123
1.02003
0.989025
0.958243
0.92771
0.897451
0.86749
0.837851
0.808558
0.779634
0.751101
0.72298
0.695294
0.668061
0.641302
0.615035
0.589276
0.564044
0.539352
0.515216
0.491647
0.468659
0.446261
0.424463
0.403273
0.382698
0.362743
0.343413
0.32471
0.306636
0.28919
0.272373
0.256181
0.240611
0.225658
0.211315
0.197577
0.184433
0.171874
0.15989
0.14847
0.137599
0.127266
0.117454
0.108149
0.0993349
0.0909939
0.0831085
0.0756604
0.0686303
0.0619984
0.0557442
0.0498466
0.0442838
0.0390332
0.0340716
0.0293746
0.0249172
0.0206714
0.0166142
0.012699
0.00894879
0.00516116
0.00194347
3.23178
3.2266
3.22074
3.21481
3.20889
3.20283
3.19656
3.19011
3.1835
3.17672
3.16975
3.1626
3.15526
3.14772
3.13998
3.13204
3.12389
3.11552
3.10693
3.09811
3.08906
3.07977
3.07024
3.06046
3.05042
3.04012
3.02956
3.01871
3.00759
2.99619
2.98448
2.97248
2.96018
2.94756
2.93462
2.92136
2.90777
2.89383
2.87955
2.86493
2.84994
2.83459
2.81886
2.80276
2.78628
2.76941
2.75214
2.73448
2.7164
2.69792
2.67902
2.65969
2.63994
2.61976
2.59915
2.57809
2.5566
2.53466
2.51227
2.48943
2.46614
2.4424
2.41821
2.39356
2.36846
2.34292
2.31692
2.29047
2.26358
2.23625
2.20849
2.1803
2.15168
2.12265
2.09321
2.06337
2.03314
2.00254
1.97156
1.94023
1.90856
1.87656
1.84425
1.81164
1.77875
1.7456
1.71221
1.67859
1.64477
1.61077
1.57661
1.54231
1.5079
1.47339
1.43883
1.40422
1.3696
1.33498
1.30041
1.26591
1.23149
1.19719
1.16305
1.12907
1.0953
1.06175
1.02847
0.995462
0.962767
0.930407
0.898408
0.866796
0.835594
0.804827
0.774517
0.744687
0.715357
0.686549
0.65828
0.63057
0.603435
0.576892
0.550954
0.525636
0.500948
0.476903
0.45351
0.430776
0.408709
0.387313
0.366592
0.34655
0.327187
0.308503
0.290496
0.273163
0.2565
0.240502
0.225161
0.210469
0.196418
0.182995
0.170191
0.157991
0.146382
0.13535
0.124878
0.11495
0.105549
0.0966554
0.0882509
0.0803155
0.0728284
0.0657685
0.0591137
0.0528413
0.0469279
0.0413492
0.0360804
0.0310951
0.0263666
0.0218645
0.0175647
0.0134138
0.00944682
0.00541328
0.00208667
3.47712
3.47158
3.46533
3.45903
3.45274
3.44629
3.43962
3.43275
3.4257
3.41846
3.41103
3.40339
3.39555
3.3875
3.37922
3.37073
3.362
3.35304
3.34383
3.33438
3.32468
3.31471
3.30448
3.29398
3.28319
3.27212
3.26076
3.2491
3.23713
3.22484
3.21224
3.1993
3.18604
3.17243
3.15847
3.14415
3.12947
3.11442
3.09899
3.08317
3.06697
3.05036
3.03335
3.01592
2.99807
2.9798
2.96109
2.94194
2.92235
2.90231
2.88181
2.86085
2.83942
2.81752
2.79514
2.77229
2.74895
2.72512
2.70081
2.676
2.6507
2.62491
2.59862
2.57185
2.54457
2.51681
2.48856
2.45983
2.43061
2.40092
2.37076
2.34013
2.30904
2.27751
2.24554
2.21314
2.18032
2.1471
2.11348
2.07949
2.04513
2.01043
1.9754
1.94005
1.90441
1.8685
1.83234
1.79595
1.75935
1.72256
1.68562
1.64855
1.61136
1.5741
1.53677
1.49943
1.46208
1.42476
1.3875
1.35033
1.31327
1.27636
1.23962
1.20309
1.1668
1.13077
1.09503
1.05961
1.02454
0.989842
0.955552
0.921692
0.888287
0.855363
0.822944
0.791051
0.759708
0.728935
0.698752
0.669178
0.64023
0.611924
0.584275
0.557297
0.531001
0.505399
0.480499
0.45631
0.432838
0.410087
0.388062
0.366764
0.346194
0.326351
0.307233
0.288836
0.271154
0.254183
0.237913
0.222335
0.20744
0.193217
0.179651
0.166729
0.154437
0.142759
0.131677
0.121174
0.111231
0.101829
0.0929461
0.0845622
0.0766551
0.069202
0.0621796
0.0555636
0.0493291
0.0434505
0.037901
0.0326527
0.0276774
0.022942
0.0184222
0.0140571
0.00989509
0.00563527
0.00222373
3.72681
3.72087
3.71416
3.70742
3.7007
3.6938
3.68665
3.67929
3.67174
3.66399
3.65602
3.64783
3.63941
3.63077
3.62188
3.61276
3.60338
3.59374
3.58385
3.57368
3.56324
3.55251
3.54149
3.53018
3.51856
3.50662
3.49437
3.48179
3.46887
3.45562
3.44201
3.42804
3.41371
3.39901
3.38392
3.36844
3.35257
3.33629
3.3196
3.30249
3.28494
3.26697
3.24854
3.22967
3.21034
3.19054
3.17027
3.14953
3.12829
3.10657
3.08434
3.06161
3.03838
3.01463
2.99036
2.96558
2.94026
2.91442
2.88805
2.86114
2.8337
2.80573
2.77722
2.74818
2.71861
2.68851
2.65788
2.62673
2.59507
2.56289
2.53021
2.49703
2.46336
2.42922
2.39461
2.35954
2.32403
2.28809
2.25174
2.21499
2.17787
2.14038
2.10255
2.06439
2.02594
1.9872
1.94822
1.909
1.86957
1.82997
1.79022
1.75033
1.71036
1.67031
1.63023
1.59014
1.55007
1.51005
1.47012
1.4303
1.39064
1.35114
1.31186
1.27282
1.23405
1.19559
1.15746
1.11969
1.08232
1.04536
1.00886
0.972835
0.937314
0.902322
0.867884
0.834024
0.800764
0.768126
0.736129
0.704793
0.674134
0.644169
0.614913
0.586378
0.558577
0.531521
0.505217
0.479673
0.454896
0.430889
0.407656
0.385198
0.363514
0.342603
0.322462
0.303086
0.28447
0.266605
0.249484
0.233097
0.217431
0.202475
0.188215
0.174636
0.161721
0.149455
0.137818
0.126792
0.116358
0.106493
0.0971764
0.088386
0.0800983
0.0722893
0.0649343
0.0580077
0.0514833
0.0453338
0.0395312
0.0340459
0.0288484
0.0239033
0.0191859
0.0146283
0.0102927
0.00582597
0.00235299
3.97714
3.97078
3.9636
3.95641
3.94925
3.94189
3.93425
3.92639
3.91831
3.91002
3.9015
3.89274
3.88373
3.87447
3.86495
3.85517
3.84512
3.83479
3.82417
3.81326
3.80205
3.79053
3.77869
3.76653
3.75404
3.74121
3.72803
3.7145
3.7006
3.68632
3.67167
3.65662
3.64118
3.62533
3.60907
3.59238
3.57526
3.55769
3.53968
3.52121
3.50227
3.48286
3.46296
3.44257
3.42169
3.4003
3.37839
3.35596
3.33301
3.30952
3.28549
3.26092
3.23579
3.21011
3.18386
3.15706
3.12968
3.10173
3.07321
3.04411
3.01444
2.98419
2.95337
2.92197
2.89
2.85747
2.82437
2.79071
2.7565
2.72175
2.68645
2.65064
2.6143
2.57746
2.54012
2.50231
2.46403
2.4253
2.38614
2.34657
2.3066
2.26626
2.22558
2.18456
2.14324
2.10164
2.05979
2.01771
1.97543
1.93298
1.89039
1.84769
1.80491
1.76209
1.71925
1.67642
1.63364
1.59095
1.54837
1.50594
1.4637
1.42167
1.37989
1.33839
1.29721
1.25637
1.21591
1.17587
1.13626
1.09713
1.05849
1.02039
0.982837
0.945868
0.909505
0.873772
0.838691
0.804285
0.770573
0.737574
0.705304
0.673781
0.643017
0.613027
0.583821
0.555409
0.527799
0.500998
0.475011
0.449843
0.425493
0.401965
0.379255
0.357362
0.336282
0.316008
0.296536
0.277855
0.259956
0.242829
0.22646
0.210837
0.195945
0.181767
0.168287
0.155487
0.143347
0.131847
0.120966
0.110683
0.100975
0.0918167
0.0831853
0.0750551
0.0674001
0.0601936
0.0534079
0.0470147
0.0409846
0.0352865
0.0298896
0.0247565
0.0198626
0.0151325
0.0106434
0.00598805
0.00247518
4.23194
4.22511
4.21741
4.20972
4.20206
4.19418
4.186
4.17758
4.16893
4.16004
4.15091
4.14151
4.13184
4.12191
4.11169
4.10119
4.09039
4.07929
4.06788
4.05615
4.04409
4.0317
4.01897
4.00588
3.99244
3.97862
3.96443
3.94985
3.93487
3.91949
3.90369
3.88747
3.87081
3.85372
3.83617
3.81816
3.79968
3.78072
3.76128
3.74133
3.72088
3.69991
3.67842
3.6564
3.63384
3.61072
3.58705
3.56282
3.53801
3.51263
3.48666
3.4601
3.43295
3.40519
3.37683
3.34786
3.31828
3.28809
3.25727
3.22584
3.19379
3.16113
3.12785
3.09395
3.05945
3.02434
2.98863
2.95233
2.91545
2.87798
2.83995
2.80136
2.76223
2.72257
2.68239
2.64171
2.60055
2.55893
2.51686
2.47437
2.43147
2.3882
2.34457
2.30062
2.25636
2.21183
2.16706
2.12206
2.07689
2.03156
1.9861
1.94056
1.89497
1.84935
1.80374
1.75819
1.71271
1.66736
1.62216
1.57714
1.53236
1.48783
1.4436
1.39969
1.35615
1.31301
1.2703
1.22804
1.18629
1.14505
1.10437
1.06427
1.02479
0.985933
0.947741
0.910234
0.873434
0.837362
0.802038
0.76748
0.733704
0.700727
0.668561
0.637219
0.606712
0.577047
0.548233
0.520275
0.493178
0.466944
0.441574
0.417067
0.393422
0.370635
0.348701
0.327613
0.307364
0.287944
0.269342
0.251546
0.234544
0.218319
0.202858
0.188141
0.174153
0.160872
0.14828
0.136355
0.125075
0.114417
0.104357
0.0948699
0.0859309
0.0775133
0.0695902
0.0621335
0.0551146
0.0485038
0.0422707
0.0363829
0.0308085
0.0255082
0.0204575
0.0155739
0.0109503
0.00612345
0.0025906
4.48904
4.48172
4.47346
4.46525
4.45707
4.44864
4.43989
4.43087
4.42161
4.4121
4.40231
4.39224
4.38188
4.37123
4.36027
4.34901
4.33742
4.32551
4.31325
4.30066
4.28771
4.27439
4.26071
4.24664
4.23218
4.21732
4.20205
4.18636
4.17024
4.15368
4.13667
4.1192
4.10127
4.08285
4.06394
4.04453
4.02461
4.00418
3.98321
3.9617
3.93965
3.91703
3.89385
3.8701
3.84575
3.82082
3.79528
3.76913
3.74237
3.71498
3.68696
3.65831
3.62901
3.59907
3.56847
3.53722
3.50532
3.47275
3.43953
3.40564
3.3711
3.33589
3.30003
3.26352
3.22636
3.18856
3.15012
3.11106
3.07138
3.03109
2.99021
2.94874
2.90671
2.86412
2.821
2.77737
2.73323
2.68862
2.64356
2.59807
2.55217
2.50589
2.45926
2.41231
2.36506
2.31755
2.26981
2.22187
2.17377
2.12553
2.0772
2.0288
1.98038
1.93198
1.88362
1.83535
1.7872
1.73921
1.69142
1.64386
1.59658
1.54961
1.50298
1.45673
1.4109
1.36553
1.32063
1.27626
1.23243
1.18919
1.14655
1.10455
1.06322
1.02259
0.982667
0.943488
0.905072
0.867439
0.830608
0.794597
0.759421
0.725095
0.691632
0.659043
0.627336
0.596521
0.566603
0.537587
0.509476
0.482271
0.455973
0.430579
0.406087
0.382491
0.359786
0.337964
0.317015
0.29693
0.277697
0.259302
0.241731
0.224968
0.208997
0.1938
0.179357
0.165648
0.152653
0.140349
0.128713
0.117721
0.107348
0.0975685
0.0883561
0.0796833
0.071522
0.0638433
0.0566174
0.0498137
0.0434007
0.0373448
0.0316133
0.026165
0.0209762
0.0159568
0.0112164
0.00623408
0.0026996
4.7508
4.74294
4.73407
4.72528
4.71653
4.70751
4.69813
4.68847
4.67854
4.66834
4.65785
4.64704
4.63593
4.62449
4.61273
4.60064
4.58819
4.57539
4.56223
4.54869
4.53477
4.52045
4.50573
4.4906
4.47504
4.45905
4.44261
4.42572
4.40836
4.39053
4.37221
4.35339
4.33406
4.31422
4.29384
4.27292
4.25145
4.22941
4.20681
4.18362
4.15983
4.13545
4.11045
4.08483
4.05857
4.03168
4.00413
3.97593
3.94707
3.91753
3.88732
3.85642
3.82483
3.79255
3.75957
3.7259
3.69151
3.65643
3.62064
3.58415
3.54695
3.50905
3.47046
3.43118
3.39122
3.35057
3.30926
3.26729
3.22467
3.18142
3.13755
3.09307
3.04801
3.00237
2.95619
2.90947
2.86225
2.81455
2.76639
2.7178
2.66881
2.61944
2.56973
2.51971
2.46941
2.41886
2.36811
2.31718
2.26611
2.21494
2.1637
2.11244
2.06119
2.01
1.95889
1.90792
1.85712
1.80653
1.75618
1.70613
1.6564
1.60703
1.55807
1.50954
1.46149
1.41396
1.36696
1.32054
1.27474
1.22957
1.18507
1.14128
1.0982
1.05588
1.01434
0.973591
0.933664
0.894575
0.856344
0.818986
0.782517
0.746948
0.712293
0.67856
0.645758
0.613894
0.582972
0.552995
0.523966
0.495885
0.46875
0.442558
0.417305
0.392985
0.36959
0.347112
0.32554
0.304863
0.285068
0.26614
0.248065
0.230825
0.214403
0.198779
0.183935
0.169848
0.156496
0.143858
0.131907
0.120621
0.109972
0.0999348
0.0904815
0.0815838
0.0732128
0.0653386
0.0579306
0.0509571
0.0443857
0.038182
0.0323124
0.0267342
0.0214243
0.0162855
0.0114447
0.00632188
0.00280262
5.01601
5.00757
4.99806
4.98866
4.9793
4.96964
4.9596
4.94925
4.93861
4.92768
4.91643
4.90485
4.89293
4.88066
4.86804
4.85506
4.8417
4.82795
4.81382
4.79927
4.78431
4.76893
4.75311
4.73684
4.72011
4.70291
4.68523
4.66706
4.64838
4.62919
4.60947
4.58921
4.5684
4.54703
4.52508
4.50255
4.47943
4.45569
4.43134
4.40635
4.38073
4.35445
4.32752
4.29991
4.27162
4.24264
4.21297
4.18258
4.15149
4.11967
4.08712
4.05385
4.01983
3.98507
3.94957
3.91332
3.87632
3.83857
3.80007
3.76082
3.72084
3.68011
3.63864
3.59645
3.55354
3.50991
3.46559
3.42058
3.37489
3.32855
3.28156
3.23395
3.18574
3.13694
3.08758
3.03769
2.98728
2.93639
2.88505
2.83327
2.78111
2.72858
2.67573
2.62258
2.56918
2.51555
2.46175
2.40779
2.35374
2.29962
2.24547
2.19135
2.13728
2.08331
2.02948
1.97583
1.92241
1.86925
1.8164
1.7639
1.71178
1.66009
1.60886
1.55813
1.50794
1.45832
1.40932
1.36095
1.31325
1.26626
1.22
1.17451
1.1298
1.0859
1.04283
1.00062
0.959294
0.918858
0.879335
0.840738
0.803081
0.766376
0.730633
0.69586
0.662065
0.629252
0.597424
0.566584
0.536731
0.507866
0.479983
0.45308
0.42715
0.402187
0.378181
0.355123
0.333
0.311801
0.29151
0.272114
0.253595
0.235936
0.219119
0.203122
0.187925
0.173507
0.159844
0.146913
0.134688
0.123144
0.112254
0.101992
0.0923282
0.0832342
0.0746801
0.0666353
0.0590682
0.0519465
0.0452369
0.0389041
0.032914
0.0272224
0.0218074
0.0165642
0.0116383
0.00638869
0.00290011
5.28607
5.27701
5.26682
5.25675
5.24674
5.23639
5.22563
5.21453
5.20314
5.19142
5.17935
5.16692
5.15413
5.14097
5.12743
5.11349
5.09914
5.08438
5.06919
5.05357
5.03749
5.02095
5.00394
4.98645
4.96846
4.94996
4.93094
4.91139
4.89129
4.87063
4.84941
4.8276
4.80519
4.78218
4.75855
4.73429
4.70938
4.68382
4.65759
4.63068
4.60308
4.57477
4.54576
4.51602
4.48556
4.45435
4.42239
4.38967
4.35619
4.32193
4.2869
4.25108
4.21448
4.17708
4.13889
4.0999
4.06012
4.01954
3.97817
3.93601
3.89306
3.84933
3.80484
3.75957
3.71356
3.6668
3.61931
3.57111
3.52221
3.47263
3.42239
3.37151
3.32001
3.26793
3.21527
3.16208
3.10838
3.0542
2.99958
2.94454
2.88912
2.83336
2.77729
2.72096
2.66439
2.60764
2.55075
2.49375
2.43668
2.3796
2.32254
2.26555
2.20866
2.15194
2.09541
2.03912
1.98312
1.92744
1.87213
1.81724
1.76279
1.70884
1.65542
1.60257
1.55032
1.49871
1.44778
1.39756
1.34807
1.29935
1.25144
1.20434
1.1581
1.11273
1.06825
1.02469
0.982065
0.94039
0.899681
0.859952
0.821214
0.783477
0.746751
0.71104
0.676352
0.642688
0.610051
0.578441
0.547857
0.518295
0.489752
0.462222
0.435696
0.410168
0.385626
0.36206
0.339457
0.317802
0.297081
0.277277
0.258373
0.240351
0.223189
0.206869
0.191368
0.176663
0.16273
0.149546
0.137084
0.125317
0.11422
0.103763
0.0939172
0.0846536
0.0759413
0.0677489
0.0600444
0.0527944
0.0459651
0.0395206
0.0334262
0.0276364
0.0221309
0.0167972
0.0118001
0.00643625
0.00299258
5.56036
5.55064
5.53971
5.52893
5.51822
5.50714
5.49562
5.48373
5.47152
5.45896
5.44602
5.4327
5.41899
5.40487
5.39033
5.37537
5.35998
5.34413
5.32782
5.31104
5.29377
5.276
5.25773
5.23892
5.21959
5.1997
5.17925
5.15822
5.1366
5.11439
5.09155
5.06809
5.04398
5.01922
4.99379
4.96767
4.94087
4.91335
4.88512
4.85615
4.82644
4.79598
4.76475
4.73275
4.69996
4.66637
4.63198
4.59678
4.56076
4.52391
4.48624
4.44772
4.40837
4.36817
4.32713
4.28525
4.24252
4.19896
4.15455
4.10931
4.06325
4.01637
3.96868
3.92019
3.87091
3.82087
3.77007
3.71853
3.66628
3.61333
3.5597
3.50542
3.45053
3.39503
3.33898
3.28238
3.22529
3.16773
3.10974
3.05135
2.99261
2.93355
2.87421
2.81464
2.75488
2.69498
2.63497
2.5749
2.51482
2.45478
2.39481
2.33496
2.27529
2.21583
2.15664