/*--------------------------------*- C++ -*----------------------------------*\
  =========                 |
  \\      /  F ield         | OpenFOAM: The Open Source CFD Toolbox
   \\    /   O peration     | Website:  https://openfoam.org
    \\  /    A nd           | Version:  13
     \\/     M anipulation  |
\*---------------------------------------------------------------------------*/
FoamFile
{
    format      ascii;
    class       surfaceScalarField;
    location    "0.25";
    object      phi;
}
// * * * * * * * * * * * * * * * * * * * * * * * * * * * * * * * * * * * * * //

dimensions      [0 3 -1 0 0 0 0];

internalField   nonuniform List<scalar> 
137229
(
14.3657
-0.000423734
-14.3685
14.3628
-0.000432938
14.3599
-0.000442481
14.357
-0.000452218
14.354
-0.000462256
14.3509
-0.000472602
14.3477
-0.000483206
14.3445
-0.000494167
14.3413
-0.000505423
14.3379
-0.000517011
14.3345
-0.000528907
14.3311
-0.000541208
14.3276
-0.000553803
14.324
-0.000566789
14.3203
-0.000580177
14.3166
-0.000593886
14.3128
-0.00060805
14.3089
-0.000622619
14.3049
-0.000637577
14.3009
-0.000653
14.2967
-0.00066884
14.2925
-0.000685146
14.2883
-0.000701933
14.2839
-0.000719191
14.2794
-0.000736939
14.2749
-0.000755196
14.2703
-0.000773984
14.2655
-0.000793295
14.2607
-0.000813154
14.2558
-0.000833583
14.2508
-0.00085455
14.2457
-0.00087617
14.2405
-0.000898351
14.2351
-0.000921122
14.2297
-0.000944603
14.2242
-0.000968646
14.2185
-0.000993402
14.2128
-0.00101885
14.2069
-0.00104492
14.2009
-0.00107175
14.1948
-0.00109926
14.1886
-0.00112754
14.1823
-0.00115656
14.1758
-0.0011863
14.1692
-0.00121689
14.1624
-0.00124821
14.1555
-0.00128035
14.1485
-0.00131332
14.1414
-0.00134714
14.1341
-0.00138174
14.1266
-0.00141725
14.119
-0.0014536
14.1113
-0.00149086
14.1034
-0.00152898
14.0953
-0.00156802
14.0871
-0.00160797
14.0787
-0.00164883
14.0701
-0.00169064
14.0614
-0.00173335
14.0524
-0.001777
14.0433
-0.00182164
14.0341
-0.00186716
14.0246
-0.00191372
14.0149
-0.00196116
14.0051
-0.00200958
13.995
-0.00205897
13.9847
-0.00210928
13.9742
-0.00216054
13.9636
-0.00221274
13.9527
-0.00226587
13.9415
-0.00231993
13.9302
-0.00237485
13.9186
-0.00243067
13.9068
-0.0024874
13.8947
-0.00254494
13.8824
-0.00260331
13.8698
-0.00266253
13.857
-0.00272245
13.8439
-0.00278314
13.8305
-0.00284455
13.8169
-0.0029066
13.803
-0.00296928
13.7888
-0.00303256
13.7743
-0.00309634
13.7595
-0.00316062
13.7444
-0.00322529
13.729
-0.00329034
13.7133
-0.00335566
13.6973
-0.00342125
13.6809
-0.00348692
13.6642
-0.00355269
13.6471
-0.00361846
13.6297
-0.00368407
13.6119
-0.00374954
13.5938
-0.00381467
13.5753
-0.0038794
13.5564
-0.0039436
13.5371
-0.00400721
13.5174
-0.00407003
13.4973
-0.00413198
13.4768
-0.00419293
13.4558
-0.00425272
13.4345
-0.00431121
13.4126
-0.00436828
13.3904
-0.00442372
13.3676
-0.00447745
13.3444
-0.00452919
13.3207
-0.00457886
13.2965
-0.00462627
13.2718
-0.00467116
13.2465
-0.00471343
13.2208
-0.00475285
13.1945
-0.00478918
13.1676
-0.00482226
13.1402
-0.00485183
13.1122
-0.00487775
13.0837
-0.00489968
13.0545
-0.00491745
13.0247
-0.00493085
12.9943
-0.00493957
12.9632
-0.00494339
12.9315
-0.00494208
12.8991
-0.00493533
12.866
-0.0049229
12.8322
-0.0049045
12.7977
-0.00487989
12.7625
-0.00484874
12.7265
-0.00481076
12.6897
-0.0047657
12.6522
-0.00471322
12.6139
-0.00465307
12.5747
-0.00458485
12.5348
-0.00450827
12.4939
-0.0044231
12.4522
-0.00432889
12.4096
-0.00422536
12.3661
-0.00411214
12.3217
-0.00398896
12.2763
-0.00385537
12.2299
-0.00371104
12.1825
-0.00355563
12.1341
-0.00338877
12.0847
-0.00321004
12.0341
-0.00301905
11.9825
-0.00281545
11.9298
-0.00259881
11.876
-0.0023687
11.821
-0.00212468
11.7647
-0.00186637
11.7073
-0.00159327
11.6486
-0.00130495
11.5887
-0.00100092
11.5274
-0.000680716
11.4648
-0.000343835
11.4008
1.02454e-05
11.3355
0.00038208
11.2687
0.000772143
11.2005
0.00118116
11.1307
0.00160953
11.0594
0.00205808
10.9866
0.00252729
10.9122
0.00301793
10.8361
0.00353069
10.7584
0.00406633
10.679
0.00462558
10.5978
0.00520927
0.00581872
13.6793
0.00213445
-13.6819
13.6767
0.00217555
13.674
0.00221742
13.6713
0.00226012
13.6686
0.00230359
13.6657
0.00234789
13.6629
0.00239302
13.6599
0.00243898
13.6569
0.00248582
13.6539
0.0025335
13.6508
0.0025821
13.6476
0.00263161
13.6444
0.00268205
13.6411
0.0027334
13.6377
0.00278572
13.6343
0.00283904
13.6308
0.00289334
13.6272
0.00294864
13.6236
0.003005
13.6198
0.00306242
13.6161
0.00312088
13.6122
0.00318044
13.6082
0.00324114
13.6042
0.00330292
13.6001
0.00336595
13.5959
0.00343006
13.5917
0.00349546
13.5873
0.00356204
13.5829
0.00362986
13.5783
0.00369897
13.5737
0.0037694
13.569
0.00384115
13.5642
0.00391424
13.5593
0.00398875
13.5543
0.00406463
13.5492
0.00414195
13.5439
0.0042208
13.5386
0.0043011
13.5332
0.00438295
13.5277
0.00446639
13.522
0.0045514
13.5162
0.00463807
13.5104
0.00472642
13.5043
0.00481649
13.4982
0.0049083
13.492
0.00500192
13.4856
0.00509737
13.4791
0.00519468
13.4724
0.00529395
13.4657
0.00539519
13.4588
0.00549843
13.4517
0.00560375
13.4445
0.00571122
13.4371
0.00582083
13.4296
0.00593272
13.422
0.00604688
13.4142
0.00616338
13.4062
0.00628235
13.3981
0.00640375
13.3898
0.0065277
13.3813
0.00665432
13.3726
0.00678361
13.3638
0.00691569
13.3548
0.00705061
13.3456
0.00718848
13.3362
0.00732937
13.3266
0.00747335
13.3168
0.00762057
13.3069
0.00777111
13.2967
0.00792503
13.2863
0.00808245
13.2756
0.00824354
13.2648
0.00840832
13.2537
0.00857699
13.2425
0.00874964
13.2309
0.00892642
13.2192
0.0091074
13.2071
0.00929279
13.1949
0.00948272
13.1823
0.00967731
13.1696
0.00987679
13.1565
0.0100812
13.1432
0.0102909
13.1296
0.0105059
13.1157
0.0107264
13.1015
0.0109526
13.087
0.0111848
13.0723
0.0114231
13.0572
0.0116677
13.0418
0.011919
13.026
0.0121769
13.01
0.012442
12.9936
0.0127143
12.9768
0.0129942
12.9597
0.0132818
12.9423
0.0135776
12.9245
0.0138816
12.9063
0.0141943
12.8877
0.014516
12.8687
0.0148469
12.8493
0.0151874
12.8295
0.0155378
12.8093
0.0158985
12.7887
0.0162698
12.7676
0.0166521
12.7461
0.0170457
12.7241
0.017451
12.7017
0.0178685
12.6787
0.0182985
12.6553
0.0187415
12.6314
0.0191979
12.607
0.0196681
12.582
0.0201526
12.5566
0.0206519
12.5305
0.0211665
12.504
0.0216967
12.4768
0.0222432
12.4491
0.0228065
12.4208
0.0233871
12.3919
0.0239855
12.3623
0.0246023
12.3321
0.0252382
12.3013
0.0258934
12.2698
0.0265689
12.2376
0.0272652
12.2048
0.0279828
12.1712
0.0287225
12.1369
0.0294848
12.1019
0.0302705
12.0661
0.0310801
12.0295
0.0319145
11.9922
0.0327744
11.954
0.0336603
11.915
0.0345732
11.8752
0.0355138
11.8344
0.0364827
11.7929
0.0374809
11.7504
0.0385091
11.7069
0.0395682
11.6626
0.0406589
11.6172
0.0417822
11.5709
0.0429389
11.5236
0.04413
11.4752
0.0453562
11.4257
0.0466187
11.3752
0.0479183
11.3236
0.0492561
11.2708
0.050633
11.2169
0.0520501
11.1618
0.0535084
11.1055
0.055009
11.048
0.056553
10.9891
0.0581416
10.929
0.0597759
10.8676
0.0614571
10.8048
0.0631866
10.7406
0.0649655
10.675
0.0667951
10.6079
0.0686768
10.5393
0.0706121
10.4693
0.0726022
10.3976
0.0746489
10.3244
0.0767535
10.2496
0.0789178
10.173
0.0811434
10.0948
0.0834329
0.0857853
13.0211
0.0044703
-13.0234
13.0187
0.00455809
13.0163
0.0046476
13.0138
0.00473891
13.0113
0.00483205
13.0087
0.00492703
13.0061
0.00502391
13.0034
0.00512276
13.0006
0.00522352
12.9978
0.00532632
12.995
0.00543117
12.9921
0.00553813
12.9891
0.00564719
12.9861
0.00575849
12.983
0.00587196
12.9799
0.00598771
12.9766
0.00610582
12.9734
0.00622624
12.97
0.00634909
12.9666
0.00647443
12.9631
0.00660222
12.9596
0.00673266
12.956
0.00686564
12.9523
0.00700134
12.9485
0.00713975
12.9446
0.00728097
12.9407
0.00742497
12.9367
0.00757194
12.9326
0.00772183
12.9284
0.00787476
12.9242
0.00803076
12.9198
0.00818996
12.9154
0.00835236
12.9108
0.00851803
12.9062
0.00868709
12.9015
0.00885954
12.8967
0.00903557
12.8918
0.00921511
12.8868
0.00939836
12.8816
0.00958535
12.8764
0.00977612
12.8711
0.00997084
12.8656
0.0101695
12.8601
0.0103723
12.8544
0.0105793
12.8486
0.0107905
12.8427
0.0110061
12.8367
0.0112262
12.8305
0.0114508
12.8242
0.0116801
12.8178
0.0119142
12.8113
0.0121532
12.8046
0.0123972
12.7978
0.0126463
12.7908
0.0129006
12.7837
0.0131604
12.7764
0.0134256
12.769
0.0136965
12.7614
0.0139731
12.7537
0.0142556
12.7458
0.0145442
12.7378
0.014839
12.7295
0.0151402
12.7211
0.0154479
12.7126
0.0157623
12.7038
0.0160835
12.6949
0.0164117
12.6858
0.0167472
12.6764
0.0170901
12.6669
0.0174406
12.6572
0.0177988
12.6473
0.018165
12.6372
0.0185395
12.6268
0.0189224
12.6162
0.0193139
12.6055
0.0197144
12.5944
0.0201239
12.5832
0.0205429
12.5717
0.0209715
12.56
0.0214099
12.548
0.0218586
12.5357
0.0223177
12.5233
0.0227876
12.5105
0.0232685
12.4975
0.0237608
12.4841
0.0242648
12.4705
0.0247808
12.4567
0.0253092
12.4425
0.0258503
12.428
0.0264045
12.4132
0.0269721
12.3981
0.0275536
12.3826
0.0281493
12.3669
0.0287598
12.3508
0.0293853
12.3343
0.0300263
12.3175
0.0306833
12.3004
0.0313568
12.2828
0.0320471
12.2649
0.0327549
12.2466
0.0334807
12.2279
0.0342249
12.2089
0.034988
12.1894
0.0357707
12.1694
0.0365735
12.1491
0.037397
12.1283
0.0382418
12.1071
0.0391086
12.0854
0.0399978
12.0632
0.0409103
12.0405
0.0418466
12.0174
0.0428075
11.9938
0.0437936
11.9696
0.0448057
11.9449
0.0458445
11.9197
0.0469108
11.8939
0.0480053
11.8676
0.0491289
11.8407
0.0502824
11.8133
0.0514665
11.7852
0.0526822
11.7565
0.0539304
11.7272
0.0552118
11.6972
0.0565276
11.6666
0.0578785
11.6353
0.0592656
11.6033
0.0606898
11.5707
0.0621521
11.5373
0.0636536
11.5032
0.0651954
11.4683
0.0667784
11.4327
0.0684039
11.3963
0.0700728
11.3591
0.0717865
11.321
0.073546
11.2822
0.0753526
11.2424
0.0772074
11.2018
0.0791118
11.1603
0.081067
11.1179
0.0830744
11.0746
0.0851352
11.0302
0.0872509
10.985
0.0894228
10.9387
0.0916525
10.8913
0.0939413
10.843
0.0962909
10.7935
0.0987026
10.743
0.101178
10.6913
0.103719
10.6385
0.106327
10.5845
0.109004
10.5293
0.111751
10.4729
0.114571
10.4152
0.117464
10.3562
0.120434
10.2959
0.123482
10.2343
0.126609
10.1712
0.129819
10.1068
0.133112
10.0409
0.136492
9.97356
0.13996
9.90469
0.143519
9.83427
0.147171
9.76227
0.150918
9.68865
0.154764
9.61337
0.15871
0.162761
12.3967
0.00660638
-12.3989
12.3946
0.00673755
12.3923
0.00687134
12.3901
0.00700794
12.3877
0.00714728
12.3854
0.00728947
12.383
0.00743456
12.3805
0.00758261
12.378
0.00773367
12.3754
0.00788786
12.3728
0.00804514
12.3702
0.00820569
12.3674
0.00836949
12.3647
0.00853666
12.3618
0.00870722
12.3589
0.00888134
12.356
0.00905897
12.353
0.00924028
12.3499
0.00942526
12.3467
0.00961408
12.3435
0.0098068
12.3403
0.0100034
12.3369
0.0102041
12.3335
0.0104089
12.33
0.010618
12.3265
0.0108313
12.3229
0.0110491
12.3192
0.0112713
12.3154
0.0114982
12.3115
0.0117297
12.3076
0.011966
12.3036
0.0122072
12.2995
0.0124534
12.2953
0.0127047
12.291
0.0129612
12.2867
0.013223
12.2822
0.0134904
12.2777
0.0137632
12.273
0.0140418
12.2683
0.0143261
12.2634
0.0146165
12.2585
0.0149128
12.2534
0.0152154
12.2483
0.0155244
12.243
0.0158398
12.2377
0.0161618
12.2322
0.0164907
12.2266
0.0168265
12.2209
0.0171693
12.215
0.0175195
12.2091
0.017877
12.203
0.0182422
12.1968
0.0186151
12.1904
0.0189959
12.1839
0.0193849
12.1773
0.0197823
12.1705
0.0201881
12.1636
0.0206026
12.1566
0.0210262
12.1494
0.0214587
12.142
0.0219008
12.1345
0.0223523
12.1268
0.0228137
12.119
0.0232851
12.111
0.0237668
12.1028
0.024259
12.0945
0.0247621
12.0859
0.0252762
12.0772
0.0258017
12.0683
0.0263388
12.0592
0.0268878
12.05
0.027449
12.0405
0.0280227
12.0308
0.0286093
12.0209
0.0292091
12.0108
0.0298223
12.0005
0.0304494
11.9899
0.0310908
11.9791
0.0317466
11.9681
0.0324175
11.9569
0.0331037
11.9454
0.0338056
11.9337
0.0345237
11.9217
0.0352584
11.9094
0.03601
11.8969
0.0367792
11.8841
0.0375663
11.871
0.0383718
11.8577
0.0391963
11.8441
0.0400401
11.8301
0.0409038
11.8159
0.0417881
11.8014
0.0426934
11.7865
0.0436202
11.7713
0.0445692
11.7558
0.0455411
11.7399
0.0465362
11.7237
0.0475555
11.7072
0.0485994
11.6903
0.0496687
11.673
0.050764
11.6553
0.0518861
11.6373
0.0530357
11.6188
0.0542134
11.6
0.0554203
11.5807
0.0566568
11.5611
0.057924
11.5409
0.0592226
11.5204
0.0605535
11.4994
0.0619176
11.4779
0.0633157
11.456
0.0647488
11.4335
0.0662178
11.4106
0.0677237
11.3872
0.0692675
11.3633
0.0708501
11.3388
0.0724727
11.3138
0.0741364
11.2882
0.0758421
11.2621
0.0775911
11.2354
0.0793844
11.2081
0.0812233
11.1802
0.0831089
11.1517
0.0850425
11.1226
0.0870254
11.0928
0.0890587
11.0623
0.091144
11.0312
0.0932824
10.9994
0.0954755
10.9668
0.0977245
10.9336
0.100031
10.8996
0.102396
10.8648
0.104822
10.8293
0.10731
10.793
0.109861
10.7559
0.112478
10.7179
0.115162
10.6791
0.117914
10.6394
0.120736
10.5989
0.12363
10.5574
0.126598
10.515
0.129642
10.4717
0.132764
10.4274
0.135965
10.3821
0.139248
10.3357
0.142614
10.2884
0.146066
10.24
0.149606
10.1904
0.153236
10.1398
0.156958
10.088
0.160775
10.0351
0.164689
9.98097
0.168702
9.92561
0.172817
9.86901
0.177036
9.81113
0.181362
9.75194
0.185797
9.69142
0.190345
9.62952
0.195009
9.56622
0.19979
9.50149
0.204692
9.43529
0.209719
9.36759
0.214873
9.29835
0.220157
9.22754
0.225576
9.15511
0.231132
0.23683
11.8011
0.00856339
-11.8031
11.7991
0.00873479
11.7971
0.00890978
11.795
0.00908838
11.7929
0.00927068
11.7907
0.00945672
11.7885
0.00964663
11.7862
0.0098405
11.7839
0.0100383
11.7816
0.0102403
11.7792
0.0104464
11.7767
0.0106569
11.7742
0.0108716
11.7717
0.0110909
11.7691
0.0113147
11.7664
0.0115431
11.7637
0.0117764
11.7609
0.0120144
11.7581
0.0122574
11.7552
0.0125055
11.7522
0.0127587
11.7492
0.0130173
11.7461
0.0132812
11.743
0.0135507
11.7398
0.0138257
11.7365
0.0141066
11.7332
0.0143933
11.7298
0.014686
11.7263
0.0149848
11.7227
0.0152899
11.7191
0.0156015
11.7154
0.0159195
11.7116
0.0162443
11.7077
0.0165759
11.7037
0.0169144
11.6997
0.0172601
11.6956
0.0176131
11.6914
0.0179736
11.6871
0.0183417
11.6827
0.0187175
11.6782
0.0191014
11.6736
0.0194933
11.6689
0.0198936
11.6642
0.0203024
11.6593
0.0207199
11.6543
0.0211462
11.6492
0.0215817
11.644
0.0220265
11.6387
0.0224808
11.6333
0.0229448
11.6277
0.0234188
11.6221
0.0239029
11.6163
0.0243974
11.6104
0.0249027
11.6043
0.0254188
11.5982
0.025946
11.5919
0.0264847
11.5854
0.027035
11.5789
0.0275973
11.5722
0.0281718
11.5653
0.0287589
11.5583
0.0293588
11.5511
0.0299718
11.5438
0.0305982
11.5364
0.0312384
11.5287
0.0318927
11.5209
0.0325614
11.513
0.0332449
11.5048
0.0339435
11.4965
0.0346577
11.488
0.0353877
11.4793
0.0361341
11.4704
0.036897
11.4614
0.0376771
11.4521
0.0384748
11.4426
0.0392904
11.433
0.0401243
11.4231
0.0409772
11.413
0.0418494
11.4026
0.0427414
11.3921
0.0436538
11.3813
0.044587
11.3703
0.0455416
11.359
0.0465181
11.3475
0.0475172
11.3358
0.0485393
11.3237
0.049585
11.3115
0.0506551
11.2989
0.05175
11.2861
0.0528705
11.273
0.0540172
11.2596
0.0551908
11.2459
0.056392
11.2319
0.0576215
11.2176
0.05888
11.2029
0.0601684
11.188
0.0614874
11.1727
0.0628377
11.1571
0.0642203
11.1411
0.0656359
11.1248
0.0670855
11.1081
0.0685699
11.091
0.0700901
11.0736
0.0716469
11.0558
0.0732413
11.0376
0.0748745
11.019
0.0765472
10.9999
0.0782607
10.9804
0.0800158
10.9606
0.0818139
10.9402
0.0836559
10.9194
0.085543
10.8982
0.0874765
10.8764
0.0894574
10.8542
0.0914871
10.8315
0.0935668
10.8083
0.0956978
10.7845
0.0978814
10.7602
0.100119
10.7354
0.102412
10.71
0.104762
10.6841
0.10717
10.6576
0.109638
10.6304
0.112168
10.6027
0.11476
10.5744
0.117417
10.5454
0.12014
10.5157
0.122931
10.4854
0.125791
10.4544
0.128723
10.4227
0.131728
10.3903
0.134808
10.3571
0.137964
10.3233
0.1412
10.2886
0.144516
10.2532
0.147916
10.2169
0.1514
10.1799
0.154971
10.142
0.158632
10.1032
0.162384
10.0636
0.166229
10.0231
0.170171
9.98161
0.174211
9.93922
0.178352
9.89587
0.182597
9.85154
0.186947
9.8062
0.191406
9.75983
0.195976
9.7124
0.20066
9.6639
0.205461
9.6143
0.210382
9.56356
0.215425
9.51167
0.220594
9.45859
0.225891
9.40431
0.231321
9.34878
0.236886
9.29199
0.242589
9.2339
0.248435
9.17449
0.254425
9.11371
0.260566
9.05154
0.266859
8.98795
0.273309
8.92291
0.279919
8.85637
0.286695
8.78831
0.293639
8.71868
0.300758
0.308054
11.2346
0.0103548
-11.2364
11.2328
0.0105638
11.2309
0.0107771
11.229
0.0109948
11.227
0.0112171
11.225
0.0114441
11.223
0.0116758
11.2209
0.0119123
11.2188
0.0121538
11.2167
0.0124003
11.2145
0.0126521
11.2122
0.0129091
11.2099
0.0131715
11.2076
0.0134394
11.2052
0.0137129
11.2027
0.0139922
11.2002
0.0142773
11.1977
0.0145685
11.1951
0.0148657
11.1924
0.0151693
11.1897
0.0154792
11.1869
0.0157957
11.1841
0.0161189
11.1812
0.0164488
11.1782
0.0167858
11.1752
0.0171299
11.1721
0.0174812
11.1689
0.01784
11.1657
0.0182064
11.1624
0.0185806
11.1591
0.0189627
11.1556
0.0193529
11.1521
0.0197515
11.1485
0.0201585
11.1449
0.0205741
11.1411
0.0209986
11.1373
0.0214322
11.1334
0.021875
11.1294
0.0223273
11.1254
0.0227892
11.1212
0.0232611
11.1169
0.023743
11.1126
0.0242353
11.1082
0.0247381
11.1036
0.0252518
11.099
0.0257765
11.0943
0.0263125
11.0894
0.02686
11.0845
0.0274194
11.0795
0.0279909
11.0743
0.0285747
11.069
0.0291712
11.0636
0.0297806
11.0581
0.0304032
11.0525
0.0310395
11.0468
0.0316895
11.0409
0.0323538
11.0349
0.0330325
11.0288
0.0337261
11.0225
0.0344349
11.0161
0.0351593
11.0096
0.0358996
11.0029
0.0366562
10.9961
0.0374295
10.9891
0.0382199
10.982
0.0390278
10.9747
0.0398536
10.9672
0.0406978
10.9596
0.0415608
10.9518
0.0424429
10.9438
0.0433449
10.9357
0.044267
10.9274
0.0452098
10.9189
0.0461738
10.9102
0.0471595
10.9013
0.0481675
10.8923
0.0491982
10.883
0.0502524
10.8735
0.0513304
10.8638
0.0524331
10.8539
0.0535608
10.8438
0.0547144
10.8334
0.0558944
10.8229
0.0571015
10.812
0.0583364
10.801
0.0595998
10.7897
0.0608924
10.7781
0.0622149
10.7663
0.0635681
10.7542
0.0649528
10.7419
0.0663699
10.7292
0.06782
10.7163
0.0693041
10.7031
0.070823
10.6896
0.0723776
10.6758
0.0739689
10.6617
0.0755978
10.6473
0.0772651
10.6325
0.078972
10.6174
0.0807195
10.602
0.0825086
10.5862
0.0843403
10.5701
0.0862158
10.5536
0.0881361
10.5368
0.0901025
10.5195
0.0921161
10.5019
0.0941781
10.4839
0.0962899
10.4654
0.0984525
10.4466
0.100667
10.4273
0.102936
10.4076
0.105259
10.3874
0.107639
10.3668
0.110077
10.3457
0.112574
10.3241
0.115132
10.3021
0.117752
10.2795
0.120436
10.2565
0.123186
10.2329
0.126003
10.2088
0.128888
10.1841
0.131845
10.1588
0.134874
10.133
0.137977
10.1066
0.141157
10.0796
0.144415
10.052
0.147752
10.0238
0.151172
9.9949
0.154676
9.96535
0.158266
9.93514
0.161945
9.90423
0.165714
9.87262
0.169576
9.84029
0.173533
9.80721
0.177588
9.77339
0.181743
9.73879
0.186
9.70339
0.190363
9.66719
0.194833
9.63017
0.199413
9.59229
0.204106
9.55354
0.208915
9.51391
0.213842
9.47337
0.218892
9.43191
0.224065
9.38949
0.229367
9.34609
0.234799
9.30171
0.240365
9.2563
0.246068
9.20985
0.251912
9.16233
0.2579
9.11372
0.264036
9.06399
0.270323
9.01312
0.276764
8.96107
0.283365
8.90783
0.290129
8.85336
0.297059
8.79763
0.30416
8.74062
0.311436
8.6823
0.318892
8.62262
0.326531
8.56157
0.334359
8.49911
0.342381
8.43521
0.3506
8.36982
0.359023
8.30293
0.367654
0.376499
10.6949
0.0119981
-10.6965
10.6932
0.0122418
10.6915
0.0124908
10.6897
0.012745
10.6879
0.0130046
10.6861
0.0132696
10.6843
0.0135403
10.6824
0.0138166
10.6804
0.0140988
10.6784
0.0143869
10.6764
0.0146812
10.6743
0.0149817
10.6722
0.0152885
10.67
0.0156018
10.6678
0.0159218
10.6656
0.0162485
10.6633
0.0165822
10.6609
0.0169229
10.6585
0.017271
10.6561
0.0176264
10.6535
0.0179893
10.651
0.01836
10.6484
0.0187386
10.6457
0.0191252
10.6429
0.0195201
10.6402
0.0199234
10.6373
0.0203354
10.6344
0.0207561
10.6314
0.0211858
10.6284
0.0216247
10.6253
0.022073
10.6221
0.022531
10.6188
0.0229987
10.6155
0.0234765
10.6121
0.0239645
10.6087
0.024463
10.6051
0.0249723
10.6015
0.0254925
10.5978
0.0260239
10.594
0.0265668
10.5902
0.0271214
10.5862
0.027688
10.5822
0.0282668
10.5781
0.0288582
10.5739
0.0294624
10.5696
0.0300797
10.5652
0.0307104
10.5607
0.0313548
10.5561
0.0320132
10.5514
0.032686
10.5466
0.0333734
10.5417
0.0340759
10.5367
0.0347937
10.5315
0.0355273
10.5263
0.0362769
10.5209
0.0370429
10.5155
0.0378258
10.5099
0.0386259
10.5042
0.0394437
10.4983
0.0402795
10.4923
0.0411338
10.4862
0.042007
10.48
0.0428995
10.4736
0.0438119
10.4671
0.0447445
10.4604
0.0456979
10.4536
0.0466726
10.4466
0.0476691
10.4395
0.0486878
10.4322
0.0497294
10.4248
0.0507944
10.4171
0.0518834
10.4094
0.0529969
10.4014
0.0541356
10.3932
0.0553
10.3849
0.0564908
10.3764
0.0577086
10.3677
0.0589542
10.3588
0.0602281
10.3497
0.0615311
10.3404
0.062864
10.3309
0.0642274
10.3212
0.065622
10.3112
0.0670488
10.3011
0.0685086
10.2907
0.0700019
10.28
0.0715299
10.2691
0.0730933
10.258
0.074693
10.2466
0.07633
10.235
0.0780051
10.2231
0.0797193
10.2109
0.0814737
10.1985
0.0832693
10.1858
0.085107
10.1727
0.0869879
10.1594
0.0889132
10.1458
0.090884
10.1319
0.0929014
10.1176
0.0949665
10.1031
0.0970807
10.0881
0.0992452
10.0729
0.101461
10.0573
0.10373
10.0414
0.106053
10.025
0.108431
10.0084
0.110867
9.99128
0.113361
9.97382
0.115915
9.95596
0.11853
9.93769
0.121208
9.919
0.123951
9.89988
0.126759
9.88032
0.129636
9.86031
0.132582
9.83984
0.1356
9.8189
0.13869
9.79748
0.141855
9.77557
0.145098
9.75315
0.148419
9.73022
0.15182
9.70676
0.155305
9.68276
0.158874
9.65821
0.16253
9.63309
0.166275
9.6074
0.170112
9.58111
0.174041
9.55421
0.178067
9.5267
0.182191
9.49855
0.186416
9.46975
0.190744
9.44028
0.195178
9.41014
0.19972
9.3793
0.204374
9.34775
0.209141
9.31546
0.214024
9.28244
0.219027
9.24865
0.224153
9.21408
0.229404
9.1787
0.234784
9.14252
0.240295
9.10549
0.245941
9.06761
0.251725
9.02885
0.257651
8.98919
0.263722
8.94862
0.269942
8.9071
0.276314
8.86462
0.282842
8.82116
0.28953
8.77669
0.296382
8.73119
0.303401
8.68463
0.310593
8.63699
0.31796
8.58825
0.325508
8.53837
0.333241
8.48734
0.341163
8.43512
0.34928
8.38168
0.357595
8.32701
0.366114
8.27106
0.374842
8.2138
0.383784
8.15522
0.392945
8.09527
0.402331
8.03392
0.411948
7.97114
0.421801
7.9069
0.431896
0.442241
10.1811
0.013504
-10.1826
10.1796
0.0137803
10.178
0.0140625
10.1764
0.0143508
10.1748
0.0146451
10.1731
0.0149457
10.1714
0.0152526
10.1696
0.0155661
10.1678
0.0158863
10.166
0.0162133
10.1641
0.0165473
10.1622
0.0168883
10.1603
0.0172367
10.1583
0.0175924
10.1563
0.0179558
10.1542
0.018327
10.1521
0.0187061
10.1499
0.0190932
10.1477
0.0194887
10.1454
0.0198927
10.1431
0.0203053
10.1407
0.0207268
10.1383
0.0211573
10.1358
0.021597
10.1333
0.0220462
10.1307
0.0225051
10.1281
0.0229738
10.1254
0.0234527
10.1226
0.0239418
10.1198
0.0244415
10.1169
0.024952
10.114
0.0254735
10.111
0.0260062
10.1079
0.0265505
10.1048
0.0271066
10.1016
0.0276747
10.0983
0.0282551
10.0949
0.0288482
10.0915
0.0294541
10.088
0.0300731
10.0844
0.0307056
10.0807
0.0313519
10.077
0.0320123
10.0732
0.032687
10.0692
0.0333765
10.0652
0.0340811
10.0611
0.0348011
10.057
0.0355369
10.0527
0.0362887
10.0483
0.0370571
10.0438
0.0378423
10.0393
0.0386448
10.0346
0.039465
10.0298
0.0403033
10.025
0.04116
10.02
0.0420357
10.0149
0.0429307
10.0096
0.0438456
10.0043
0.0447808
9.99884
0.0457368
9.99326
0.046714
9.98755
0.0477129
9.98172
0.0487342
9.97575
0.0497782
9.96965
0.0508457
9.96341
0.051937
9.95703
0.0530528
9.95051
0.0541937
9.94383
0.0553602
9.93701
0.0565531
9.93003
0.0577728
9.9229
0.0590202
9.9156
0.0602958
9.90813
0.0616004
9.9005
0.0629346
9.89269
0.0642992
9.8847
0.0656949
9.87653
0.0671225
9.86818
0.0685827
9.85963
0.0700765
9.85089
0.0716045
9.84195
0.0731676
9.83281
0.0747668
9.82345
0.0764029
9.81389
0.0780768
9.8041
0.0797895
9.79409
0.081542
9.78384
0.0833352
9.77337
0.0851701
9.76265
0.0870477
9.75169
0.0889693
9.74047
0.0909358
9.72899
0.0929485
9.71726
0.0950083
9.70525
0.0971166
9.69296
0.0992745
9.68039
0.101483
9.66753
0.103744
9.65437
0.106059
9.64091
0.108428
9.62714
0.110854
9.61305
0.113337
9.59863
0.115879
9.58388
0.118482
9.56878
0.121146
9.55334
0.123875
9.53754
0.126668
9.52137
0.129529
9.50483
0.132458
9.4879
0.135457
9.47058
0.138528
9.45286
0.141673
9.43472
0.144894
9.41617
0.148192
9.39718
0.15157
9.37775
0.155029
9.35787
0.158572
9.33752
0.1622
9.31671
0.165915
9.2954
0.169721
9.2736
0.173619
9.2513
0.177611
9.22847
0.1817
9.20511
0.185888
9.18121
0.190177
9.15675
0.194571
9.13172
0.199071
9.10611
0.20368
9.0799
0.208402
9.05308
0.213238
9.02563
0.218191
8.99755
0.223265
8.9688
0.228463
8.93939
0.233787
8.90929
0.23924
8.87849
0.244826
8.84697
0.250548
8.81471
0.25641
8.7817
0.262414
8.74792
0.268564
8.71335
0.274864
8.67797
0.281318
8.64177
0.287929
8.60472
0.294701
8.56681
0.301637
8.528
0.308743
8.4883
0.316023
8.44766
0.323479
8.40607
0.331117
8.36351
0.338942
8.31996
0.346957
8.27538
0.355168
8.22976
0.363579
8.18307
0.372195
8.13529
0.381021
8.0864
0.390063
8.03635
0.399325
7.98513
0.408813
7.93271
0.418533
7.87907
0.42849
7.82416
0.43869
7.76796
0.44914
7.71045
0.459845
7.65158
0.470812
7.59134
0.482048
7.52967
0.493559
0.505353
9.6919
0.0148861
-9.69328
9.69048
0.0151928
9.68904
0.015506
9.68756
0.0158259
9.68606
0.0161526
9.68452
0.0164863
9.68294
0.0168272
9.68133
0.0171754
9.67969
0.017531
9.67801
0.0178943
9.67629
0.0182654
9.67453
0.0186444
9.67274
0.0190315
9.6709
0.019427
9.66903
0.019831
9.66711
0.0202437
9.66515
0.0206653
9.66315
0.0210959
9.6611
0.0215358
9.65901
0.0219852
9.65687
0.0224444
9.65468
0.0229134
9.65245
0.0233926
9.65016
0.0238821
9.64783
0.0243822
9.64544
0.0248932
9.643
0.0254152
9.6405
0.0259485
9.63795
0.0264934
9.63534
0.0270502
9.63267
0.027619
9.62995
0.0282002
9.62716
0.028794
9.62431
0.0294008
9.6214
0.0300208
9.61842
0.0306543
9.61537
0.0313017
9.61225
0.0319631
9.60907
0.0326391
9.60581
0.0333298
9.60248
0.0340356
9.59908
0.0347569
9.5956
0.0354941
9.59204
0.0362474
9.5884
0.0370173
9.58467
0.0378041
9.58087
0.0386082
9.57697
0.03943
9.57299
0.04027
9.56892
0.0411286
9.56476
0.042006
9.5605
0.042903
9.55614
0.0438198
9.55169
0.0447569
9.54713
0.0457149
9.54248
0.0466941
9.53771
0.0476952
9.53284
0.0487186
9.52785
0.0497647
9.52276
0.0508343
9.51754
0.0519278
9.51221
0.0530458
9.50675
0.0541889
9.50118
0.0553577
9.49547
0.0565527
9.48963
0.0577747
9.48366
0.0590243
9.47755
0.060302
9.4713
0.0616087
9.46491
0.062945
9.45837
0.0643117
9.45168
0.0657093
9.44484
0.0671389
9.43784
0.068601
9.43068
0.0700965
9.42335
0.0716262
9.41585
0.0731909
9.40818
0.0747916
9.40034
0.076429
9.39231
0.0781042
9.3841
0.0798179
9.37569
0.0815713
9.3671
0.0833652
9.3583
0.0852006
9.3493
0.0870787
9.34009
0.0890003
9.33066
0.0909668
9.32102
0.0929791
9.31115
0.0950383
9.30105
0.0971458
9.29072
0.0993026
9.28014
0.10151
9.26932
0.103769
9.25825
0.106082
9.24692
0.108448
9.23532
0.110871
9.22345
0.113351
9.21131
0.115889
9.19888
0.118488
9.18616
0.121148
9.17314
0.123872
9.15982
0.12666
9.14618
0.129515
9.13222
0.132437
9.11794
0.135429
9.10332
0.138493
9.08836
0.14163
9.07305
0.144842
9.05738
0.148131
9.04133
0.151499
9.02492
0.154947
9.00811
0.158478
8.99091
0.162094
8.97331
0.165797
8.95529
0.169589
8.93684
0.173472
8.91796
0.177449
8.89864
0.181522
8.87886
0.185693
8.85862
0.189964
8.8379
0.194339
8.81669
0.198819
8.79499
0.203408
8.77277
0.208107
8.75002
0.21292
8.72674
0.21785
8.70292
0.222899
8.67853
0.228069
8.65356
0.233366
8.62801
0.23879
8.60186
0.244346
8.57508
0.250036
8.54768
0.255865
8.51963
0.261835
8.49093
0.267949
8.46154
0.274212
8.43146
0.280626
8.40067
0.287197
8.36916
0.293927
8.33691
0.30082
8.30389
0.30788
8.2701
0.315112
8.23551
0.322519
8.2001
0.330107
8.16386
0.337878
8.12676
0.345839
8.08879
0.353993
8.04993
0.362344
8.01015
0.370899
7.96943
0.379662
7.92774
0.388638
7.88508
0.397832
7.84141
0.40725
7.79671
0.416896
7.75095
0.426777
7.70412
0.436899
7.65617
0.447267
7.6071
0.457887
7.55687
0.468766
7.50545
0.47991
7.45281
0.491326
7.39893
0.503019
7.34378
0.514998
7.28732
0.52727
7.22953
0.53984
7.17037
0.552719
0.565913
9.22611
0.0161541
-9.22738
9.22482
0.016489
9.22349
0.0168311
9.22214
0.0171806
9.22075
0.0175375
9.21934
0.0179023
9.21789
0.0182748
9.21641
0.0186553
9.2149
0.0190441
9.21335
0.0194413
9.21177
0.019847
9.21015
0.0202615
9.2085
0.020685
9.20681
0.0211176
9.20508
0.0215595
9.20331
0.0220111
9.2015
0.0224724
9.19966
0.0229437
9.19777
0.0234253
9.19583
0.0239173
9.19386
0.02442
9.19184
0.0249336
9.18977
0.0254584
9.18766
0.0259946
9.1855
0.0265425
9.18329
0.0271023
9.18103
0.0276743
9.17872
0.0282588
9.17636
0.0288561
9.17394
0.0294664
9.17147
0.03009
9.16894
0.0307273
9.16636
0.0313785
9.16372
0.0320441
9.16101
0.0327242
9.15825
0.0334192
9.15542
0.0341295
9.15253
0.0348554
9.14957
0.0355972
9.14654
0.0363554
9.14345
0.0371303
9.14028
0.0379222
9.13705
0.0387317
9.13373
0.039559
9.13035
0.0404046
9.12688
0.041269
9.12334
0.0421524
9.11971
0.0430555
9.116
0.0439786
9.11221
0.0449222
9.10833
0.0458868
9.10436
0.0468729
9.1003
0.0478809
9.09614
0.0489114
9.09189
0.049965
9.08755
0.0510421
9.0831
0.0521434
9.07855
0.0532693
9.07389
0.0544205
9.06913
0.0555976
9.06425
0.0568011
9.05927
0.0580318
9.05417
0.0592902
9.04895
0.0605771
9.04361
0.061893
9.03814
0.0632388
9.03255
0.0646151
9.02683
0.0660227
9.02098
0.0674623
9.01499
0.0689347
9.00886
0.0704406
9.00259
0.071981
8.99617
0.0735566
8.9896
0.0751684
8.98288
0.0768171
8.97601
0.0785037
8.96897
0.0802291
8.96176
0.0819943
8.95439
0.0838003
8.94685
0.085648
8.93913
0.0875386
8.93123
0.0894729
8.92314
0.0914522
8.91486
0.0934775
8.90639
0.09555
8.89772
0.097671
8.88885
0.0998414
8.87976
0.102063
8.87047
0.104336
8.86095
0.106662
8.85121
0.109044
8.84124
0.111481
8.83103
0.113976
8.82058
0.116529
8.80989
0.119143
8.79894
0.121819
8.78773
0.124558
8.77626
0.127362
8.76452
0.130232
8.75249
0.133171
8.74018
0.13618
8.72759
0.13926
8.71469
0.142414
8.70148
0.145642
8.68796
0.148948
8.67412
0.152333
8.65995
0.155799
8.64545
0.159348
8.6306
0.162982
8.61539
0.166703
8.59983
0.170513
8.58389
0.174415
8.56757
0.17841
8.55087
0.182502
8.53377
0.186691
8.51626
0.190982
8.49833
0.195376
8.47998
0.199875
8.46119
0.204483
8.44195
0.209202
8.42225
0.214035
8.40209
0.218985
8.38144
0.224053
8.36031
0.229244
8.33866
0.234561
8.31651
0.240006
8.29383
0.245582
8.2706
0.251293
8.24683
0.257142
8.22248
0.263132
8.19756
0.269268
8.17205
0.275551
8.14592
0.281987
8.11918
0.288578
8.0918
0.295329
8.06377
0.302243
8.03507
0.309324
8.00569
0.316577
7.97561
0.324006
7.94482
0.331614
7.91329
0.339407
7.88101
0.347388