/*--------------------------------*- C++ -*----------------------------------*\
  =========                 |
  \\      /  F ield         | OpenFOAM: The Open Source CFD Toolbox
   \\    /   O peration     | Website:  https://openfoam.org
    \\  /    A nd           | Version:  13
     \\/     M anipulation  |
\*---------------------------------------------------------------------------*/
FoamFile
{
    format      ascii;
    class       volVectorField;
    location    "0.25";
    object      U;
}
// * * * * * * * * * * * * * * * * * * * * * * * * * * * * * * * * * * * * * //

dimensions      [0 1 -1 0 0 0 0];

internalField   nonuniform List<vector> 
68864
(
(30.0155 -0.130804 -1.42252e-21)
(30.0155 -0.131347 -4.27396e-23)
(30.0156 -0.131897 1.14379e-20)
(30.0156 -0.132453 -1.27592e-20)
(30.0157 -0.133016 1.23404e-21)
(30.0158 -0.133586 -1.87726e-21)
(30.0158 -0.134162 5.72817e-21)
(30.0159 -0.134746 -1.87527e-21)
(30.0159 -0.135337 2.10701e-21)
(30.016 -0.135935 -7.64925e-21)
(30.0161 -0.13654 4.3627e-21)
(30.0161 -0.137152 5.40378e-22)
(30.0162 -0.137771 -8.84871e-21)
(30.0162 -0.138398 3.61306e-21)
(30.0163 -0.139032 5.0622e-21)
(30.0164 -0.139673 -3.31757e-21)
(30.0164 -0.140322 5.1298e-21)
(30.0165 -0.140978 3.64005e-21)
(30.0165 -0.141642 -1.82446e-21)
(30.0166 -0.142313 -5.99062e-21)
(30.0167 -0.142991 8.79563e-21)
(30.0167 -0.143678 4.48139e-21)
(30.0168 -0.144371 -6.16614e-21)
(30.0169 -0.145073 -6.94888e-21)
(30.0169 -0.145782 4.11782e-21)
(30.017 -0.146499 -8.12186e-21)
(30.0171 -0.147223 3.71299e-21)
(30.0171 -0.147955 8.1142e-21)
(30.0172 -0.148695 -1.7782e-20)
(30.0173 -0.149443 -1.25356e-20)
(30.0173 -0.150198 3.83857e-21)
(30.0174 -0.150961 1.04208e-20)
(30.0175 -0.151732 -7.53464e-21)
(30.0176 -0.152511 2.00725e-20)
(30.0176 -0.153297 1.19858e-20)
(30.0177 -0.154092 -2.15787e-20)
(30.0178 -0.154893 2.20681e-20)
(30.0179 -0.155703 -1.06435e-20)
(30.0179 -0.15652 -1.32019e-20)
(30.018 -0.157345 2.72012e-20)
(30.0181 -0.158177 -2.65477e-20)
(30.0182 -0.159017 2.55869e-20)
(30.0182 -0.159864 -9.27043e-21)
(30.0183 -0.160718 3.62364e-22)
(30.0184 -0.16158 -2.75556e-20)
(30.0185 -0.16245 3.18548e-20)
(30.0186 -0.163326 -9.75829e-21)
(30.0186 -0.16421 -9.4938e-21)
(30.0187 -0.1651 -8.67569e-22)
(30.0188 -0.165998 1.31121e-20)
(30.0189 -0.166902 -1.04649e-20)
(30.019 -0.167813 -3.84101e-21)
(30.0191 -0.168731 2.05477e-20)
(30.0192 -0.169655 -8.88989e-21)
(30.0192 -0.170585 3.94131e-21)
(30.0193 -0.171522 -9.14068e-21)
(30.0194 -0.172464 1.33096e-20)
(30.0195 -0.173412 -1.17619e-20)
(30.0196 -0.174366 8.01616e-21)
(30.0197 -0.175325 -1.94119e-20)
(30.0198 -0.17629 3.03656e-21)
(30.0199 -0.17726 1.4641e-20)
(30.02 -0.178234 -3.78818e-21)
(30.0201 -0.179213 1.10594e-20)
(30.0202 -0.180196 -1.17806e-20)
(30.0203 -0.181184 4.28166e-21)
(30.0204 -0.182175 -5.14459e-21)
(30.0205 -0.18317 3.44322e-21)
(30.0206 -0.184169 2.9059e-22)
(30.0207 -0.18517 4.30461e-21)
(30.0208 -0.186174 4.13474e-21)
(30.0209 -0.18718 -4.27017e-21)
(30.021 -0.188189 -1.64956e-20)
(30.0211 -0.189199 1.84932e-20)
(30.0212 -0.190211 -7.99086e-21)
(30.0213 -0.191223 -6.50907e-21)
(30.0214 -0.192237 2.11497e-20)
(30.0215 -0.193251 -2.41736e-20)
(30.0216 -0.194264 9.45125e-21)
(30.0218 -0.195278 -1.32873e-20)
(30.0219 -0.19629 2.40936e-20)
(30.022 -0.197301 -1.60713e-20)
(30.0221 -0.198311 4.34019e-21)
(30.0222 -0.199318 1.15539e-20)
(30.0223 -0.200323 -1.43218e-20)
(30.0224 -0.201325 -2.16541e-21)
(30.0225 -0.202324 1.15893e-20)
(30.0226 -0.203319 -4.05462e-21)
(30.0228 -0.204309 -7.98393e-21)
(30.0229 -0.205295 1.44261e-20)
(30.023 -0.206276 4.12202e-21)
(30.0231 -0.207251 4.41567e-21)
(30.0232 -0.20822 -1.84977e-20)
(30.0233 -0.209182 7.36652e-21)
(30.0234 -0.210138 -1.95566e-20)
(30.0235 -0.211086 2.26152e-20)
(30.0236 -0.212025 -3.07614e-20)
(30.0238 -0.212957 2.39974e-20)
(30.0239 -0.21388 1.28747e-21)
(30.024 -0.214793 -2.39512e-20)
(30.0241 -0.215696 3.42007e-20)
(30.0242 -0.21659 -1.14314e-20)
(30.0243 -0.217473 -1.61332e-20)
(30.0244 -0.218344 2.03176e-21)
(30.0245 -0.219204 6.46243e-21)
(30.0246 -0.220053 -4.17777e-21)
(30.0247 -0.220889 1.23063e-20)
(30.0248 -0.221712 3.62716e-21)
(30.0249 -0.222523 -1.56318e-20)
(30.025 -0.22332 2.27516e-21)
(30.0251 -0.224104 2.18744e-21)
(30.0252 -0.224873 1.01658e-21)
(30.0253 -0.225628 3.2414e-21)
(30.0254 -0.226369 -9.27744e-21)
(30.0255 -0.227095 1.18658e-20)
(30.0256 -0.227805 -5.16597e-21)
(30.0257 -0.228501 5.28221e-22)
(30.0257 -0.22918 7.61329e-21)
(30.0258 -0.229844 -3.20316e-21)
(30.0259 -0.230492 -4.67672e-21)
(30.026 -0.231124 -3.24541e-21)
(30.0261 -0.23174 5.7637e-21)
(30.0261 -0.23234 -4.29927e-21)
(30.0262 -0.232923 8.78714e-21)
(30.0263 -0.23349 -6.16278e-22)
(30.0263 -0.23404 7.64526e-22)
(30.0264 -0.234574 -5.13482e-21)
(30.0265 -0.235092 -1.05836e-21)
(30.0265 -0.235593 -1.84353e-21)
(30.0266 -0.236077 2.88524e-21)
(30.0267 -0.236546 -1.95028e-21)
(30.0267 -0.236998 3.88983e-21)
(30.0268 -0.237433 -2.34014e-21)
(30.0268 -0.237853 -4.96307e-24)
(30.0269 -0.238257 1.59768e-21)
(30.0269 -0.238645 -2.61837e-21)
(30.027 -0.239018 8.39647e-22)
(30.027 -0.239376 1.8342e-22)
(30.0271 -0.239718 2.02159e-22)
(30.0271 -0.240045 1.17585e-21)
(30.0271 -0.240358 -2.53156e-21)
(30.0272 -0.240656 2.59456e-21)
(30.0272 -0.24094 -1.86675e-21)
(30.0272 -0.24121 -7.54555e-22)
(30.0273 -0.241466 5.12162e-22)
(30.0273 -0.241709 1.5349e-21)
(30.0273 -0.241939 -3.14426e-22)
(30.0274 -0.242156 -1.10167e-21)
(30.0274 -0.24236 5.28988e-22)
(30.0274 -0.242552 6.23892e-22)
(30.0274 -0.242731 -7.9794e-22)
(30.0274 -0.242899 4.67342e-22)
(30.0275 -0.243056 -1.22043e-22)
(30.0275 -0.243201 -2.21084e-22)
(30.0275 -0.243335 2.90859e-24)
(30.0275 -0.243458 1.00179e-22)
(30.0275 -0.24357 1.12338e-22)
(30.0275 -0.243672 -1.04963e-22)
(30.0276 -0.243763 2.25509e-23)
(30.0276 -0.243844 2.24057e-24)
(30.0276 -0.243915 1.17763e-23)
(30.0276 -0.243976 4.02288e-23)
(30.0276 -0.244027 -3.65957e-23)
(30.0276 -0.244067 1.65853e-23)
(30.0276 -0.244098 -1.70627e-23)
(30.0276 -0.244118 1.78489e-24)
(30.0276 -0.24413 4.85106e-25)
(30.0163 -0.131362 -3.12503e-21)
(30.0164 -0.131858 2.74398e-21)
(30.0165 -0.13236 -3.35246e-20)
(30.0165 -0.132868 5.21537e-21)
(30.0166 -0.133383 6.07181e-21)
(30.0167 -0.133906 2.46832e-20)
(30.0167 -0.134436 -3.03536e-20)
(30.0168 -0.134973 2.98399e-20)
(30.0169 -0.135518 -4.09936e-20)
(30.017 -0.13607 4.60659e-21)
(30.017 -0.136629 1.76447e-20)
(30.0171 -0.137196 -1.71275e-20)
(30.0172 -0.137771 -1.41976e-21)
(30.0173 -0.138353 1.63229e-20)
(30.0173 -0.138943 6.81131e-22)
(30.0174 -0.13954 -6.18592e-21)
(30.0175 -0.140145 1.80318e-20)
(30.0176 -0.140758 -1.3018e-20)
(30.0177 -0.141379 3.9722e-21)
(30.0177 -0.142008 3.59389e-21)
(30.0178 -0.142645 -4.13681e-21)
(30.0179 -0.14329 -3.25616e-21)
(30.018 -0.143943 2.84707e-20)
(30.0181 -0.144604 -3.8394e-20)
(30.0182 -0.145273 -5.95456e-21)
(30.0183 -0.14595 3.05019e-20)
(30.0183 -0.146636 -1.69057e-20)
(30.0184 -0.14733 1.10413e-20)
(30.0185 -0.148032 -1.98089e-20)
(30.0186 -0.148742 1.16801e-20)
(30.0187 -0.14946 -1.44936e-20)
(30.0188 -0.150187 2.96417e-20)
(30.0189 -0.150922 -2.39089e-20)
(30.019 -0.151665 -1.81207e-20)
(30.0191 -0.152417 6.93357e-20)
(30.0192 -0.153177 2.97702e-21)
(30.0193 -0.153945 -3.25579e-20)
(30.0194 -0.154722 1.88919e-21)
(30.0195 -0.155507 1.25953e-20)
(30.0197 -0.1563 -7.16383e-21)
(30.0198 -0.157101 -2.05158e-20)
(30.0199 -0.15791 1.30875e-20)
(30.02 -0.158728 1.54094e-20)
(30.0201 -0.159554 -2.1619e-20)
(30.0202 -0.160387 -1.58047e-20)
(30.0203 -0.161229 3.38035e-20)
(30.0205 -0.162079 -5.80712e-20)
(30.0206 -0.162936 6.97824e-20)
(30.0207 -0.163801 -3.88826e-20)
(30.0208 -0.164674 -2.06327e-20)
(30.021 -0.165555 6.76668e-21)
(30.0211 -0.166442 4.77772e-20)
(30.0212 -0.167338 -4.22657e-22)
(30.0214 -0.16824 3.82749e-21)
(30.0215 -0.16915 -4.30915e-20)
(30.0216 -0.170066 -1.624e-20)
(30.0218 -0.17099 2.80355e-20)
(30.0219 -0.17192 -1.35566e-20)
(30.0221 -0.172856 5.02937e-21)
(30.0222 -0.173799 -2.10261e-21)
(30.0224 -0.174748 1.24343e-21)
(30.0225 -0.175703 1.27299e-20)
(30.0227 -0.176664 3.57434e-20)
(30.0228 -0.177631 -5.02632e-20)
(30.023 -0.178602 2.45818e-20)
(30.0231 -0.179579 -3.80658e-20)
(30.0233 -0.18056 -1.25305e-20)
(30.0235 -0.181546 4.04921e-20)
(30.0236 -0.182537 1.51612e-20)
(30.0238 -0.183531 -1.01915e-20)
(30.024 -0.184529 -2.36793e-20)
(30.0241 -0.185531 3.55948e-20)
(30.0243 -0.186535 -1.62329e-20)
(30.0245 -0.187543 1.304e-20)
(30.0247 -0.188553 -2.33813e-20)
(30.0248 -0.189565 2.0655e-20)
(30.025 -0.190578 1.23432e-20)
(30.0252 -0.191593 9.61093e-22)
(30.0254 -0.192609 -3.98068e-20)
(30.0256 -0.193626 2.82875e-20)
(30.0258 -0.194643 -4.45801e-20)
(30.0259 -0.19566 3.00204e-20)
(30.0261 -0.196676 -1.33539e-20)
(30.0263 -0.197691 1.66034e-20)
(30.0265 -0.198705 -1.37428e-20)
(30.0267 -0.199716 2.66878e-20)
(30.0269 -0.200726 -2.00428e-20)
(30.0271 -0.201732 5.6396e-21)
(30.0273 -0.202736 -1.67144e-21)
(30.0275 -0.203735 -1.64005e-20)
(30.0277 -0.204731 3.22185e-20)
(30.0279 -0.205722 -1.43124e-20)
(30.0281 -0.206707 -9.19172e-21)
(30.0283 -0.207687 -6.86773e-21)
(30.0285 -0.208661 -2.8696e-21)
(30.0287 -0.209628 7.53351e-21)
(30.0289 -0.210589 1.60821e-20)
(30.0291 -0.211541 8.09127e-21)
(30.0293 -0.212486 -2.71251e-20)
(30.0294 -0.213422 -7.92496e-21)
(30.0296 -0.214349 8.16623e-21)
(30.0298 -0.215267 1.56054e-20)
(30.03 -0.216175 3.74061e-21)
(30.0302 -0.217072 -3.93011e-21)
(30.0304 -0.217959 -9.95792e-21)
(30.0306 -0.218834 -4.23906e-21)
(30.0308 -0.219698 6.43932e-21)
(30.031 -0.220549 1.60097e-20)
(30.0311 -0.221389 -1.53813e-20)
(30.0313 -0.222215 4.37505e-21)
(30.0315 -0.223028 -1.10642e-20)
(30.0317 -0.223827 1.72538e-20)
(30.0319 -0.224612 -8.00372e-21)
(30.032 -0.225383 -2.95235e-21)
(30.0322 -0.226139 1.34741e-20)
(30.0324 -0.226881 -1.57069e-20)
(30.0325 -0.227607 -4.83663e-22)
(30.0327 -0.228317 4.92363e-21)
(30.0328 -0.229012 8.11662e-21)
(30.033 -0.229691 -7.1075e-21)
(30.0331 -0.230354 -6.20616e-21)
(30.0333 -0.231001 9.90678e-21)
(30.0334 -0.231631 -5.37978e-21)
(30.0336 -0.232245 1.16615e-21)
(30.0337 -0.232842 7.72633e-22)
(30.0338 -0.233422 -6.93553e-21)
(30.0339 -0.233985 7.89001e-22)
(30.0341 -0.234532 -1.55445e-22)
(30.0342 -0.235062 9.84485e-21)
(30.0343 -0.235575 -3.94461e-21)
(30.0344 -0.236071 1.76078e-21)
(30.0345 -0.23655 -2.4041e-21)
(30.0346 -0.237012 1.9563e-21)
(30.0347 -0.237458 -2.84956e-21)
(30.0348 -0.237888 5.99578e-21)
(30.0349 -0.238301 -6.71403e-21)
(30.035 -0.238698 4.34288e-21)
(30.0351 -0.239079 -3.80683e-21)
(30.0352 -0.239444 6.40215e-23)
(30.0352 -0.239793 4.53686e-21)
(30.0353 -0.240127 -8.73291e-22)
(30.0354 -0.240446 -1.66329e-21)
(30.0354 -0.24075 1.70278e-21)
(30.0355 -0.241039 5.83506e-22)
(30.0356 -0.241314 -3.08096e-21)
(30.0356 -0.241574 -2.82249e-22)
(30.0357 -0.241821 3.5046e-21)
(30.0357 -0.242054 -3.17857e-21)
(30.0357 -0.242273 1.98836e-21)
(30.0358 -0.242479 8.04131e-22)
(30.0358 -0.242673 -2.5071e-21)
(30.0359 -0.242854 6.71682e-22)
(30.0359 -0.243022 -5.98467e-22)
(30.0359 -0.243179 4.89306e-22)
(30.036 -0.243323 2.99426e-22)
(30.036 -0.243457 -3.79041e-22)
(30.036 -0.243578 8.08402e-22)
(30.036 -0.243689 -7.37433e-22)
(30.036 -0.243788 3.03003e-22)
(30.036 -0.243876 -6.97001e-23)
(30.0361 -0.243954 1.87224e-22)
(30.0361 -0.24402 -3.77328e-23)
(30.0361 -0.244076 -7.03024e-23)
(30.0361 -0.24412 5.50427e-23)
(30.0361 -0.244154 -5.20989e-23)
(30.0361 -0.244174 7.44665e-24)
(30.0361 -0.244186 -4.61672e-24)
(30.0065 -0.131447 -2.347e-20)
(30.0066 -0.131948 -9.1502e-21)
(30.0066 -0.132456 -1.00738e-20)
(30.0067 -0.132969 2.32413e-20)
(30.0068 -0.133491 -2.89933e-20)
(30.0069 -0.134019 5.34326e-20)
(30.007 -0.134554 -7.46991e-21)
(30.0071 -0.135097 2.04352e-21)
(30.0072 -0.135647 3.25643e-22)
(30.0073 -0.136205 5.32414e-21)
(30.0074 -0.13677 -3.86842e-20)
(30.0075 -0.137342 1.41879e-20)
(30.0076 -0.137922 1.74468e-20)
(30.0077 -0.138509 1.71631e-20)
(30.0078 -0.139105 -2.19843e-20)
(30.008 -0.139707 1.27186e-20)
(30.0081 -0.140318 -2.1098e-21)
(30.0082 -0.140936 1.4326e-21)
(30.0083 -0.141563 -1.88151e-20)
(30.0084 -0.142197 -3.16685e-21)
(30.0085 -0.142839 -1.0699e-20)
(30.0087 -0.143489 -1.14574e-20)
(30.0088 -0.144147 1.8541e-20)
(30.0089 -0.144813 5.26437e-21)
(30.009 -0.145488 -2.68608e-20)
(30.0092 -0.14617 4.66546e-20)
(30.0093 -0.146861 -3.7625e-20)
(30.0094 -0.147559 6.7765e-21)
(30.0096 -0.148266 3.30008e-20)
(30.0097 -0.148982 1.68865e-21)
(30.0099 -0.149705 -4.43778e-20)
(30.01 -0.150437 3.25945e-20)
(30.0101 -0.151177 -3.72772e-20)
(30.0103 -0.151925 -7.59193e-21)
(30.0104 -0.152682 3.2758e-20)
(30.0106 -0.153447 -6.98553e-21)
(30.0107 -0.15422 -1.10047e-20)
(30.0109 -0.155002 2.0712e-20)
(30.0111 -0.155792 5.82473e-21)
(30.0112 -0.15659 1.6844e-20)
(30.0114 -0.157396 -8.48388e-20)
(30.0116 -0.15821 1.72246e-20)
(30.0117 -0.159033 8.96591e-20)
(30.0119 -0.159863 -1.01951e-19)
(30.0121 -0.160702 8.70297e-22)
(30.0123 -0.161548 5.64954e-20)
(30.0125 -0.162403 4.66051e-20)
(30.0126 -0.163265 -2.83884e-20)
(30.0128 -0.164135 1.35958e-20)
(30.013 -0.165012 -2.34237e-20)
(30.0132 -0.165897 5.3944e-21)
(30.0134 -0.16679 -2.48672e-20)
(30.0136 -0.16769 5.01729e-20)
(30.0138 -0.168597 8.06442e-21)
(30.014 -0.169511 -4.59e-20)
(30.0142 -0.170432 -4.25895e-20)
(30.0145 -0.17136 9.88556e-21)
(30.0147 -0.172295 7.40805e-20)
(30.0149 -0.173235 -3.37761e-20)
(30.0151 -0.174183 -3.40539e-20)
(30.0154 -0.175136 -1.92784e-20)
(30.0156 -0.176095 3.7202e-20)
(30.0158 -0.17706 6.04018e-20)
(30.0161 -0.17803 -8.49258e-20)
(30.0163 -0.179005 3.63799e-20)
(30.0165 -0.179986 1.41604e-20)
(30.0168 -0.180971 2.63683e-20)
(30.017 -0.181961 -3.85613e-20)
(30.0173 -0.182954 1.11443e-20)
(30.0175 -0.183952 -1.34713e-20)
(30.0178 -0.184953 4.72222e-20)
(30.0181 -0.185958 -1.63588e-21)
(30.0183 -0.186965 -4.51908e-20)
(30.0186 -0.187975 9.6428e-21)
(30.0189 -0.188988 -1.5989e-21)
(30.0191 -0.190002 1.01419e-20)
(30.0194 -0.191018 -2.49476e-20)
(30.0197 -0.192035 -1.5811e-20)
(30.02 -0.193053 -2.66055e-21)
(30.0203 -0.194072 1.58141e-20)
(30.0206 -0.19509 -2.15628e-20)
(30.0208 -0.196108 5.98836e-20)
(30.0211 -0.197125 -2.83983e-21)
(30.0214 -0.198141 -3.98495e-20)
(30.0217 -0.199156 4.90627e-21)
(30.022 -0.200168 2.5093e-20)
(30.0223 -0.201178 -1.28458e-20)
(30.0226 -0.202184 -4.65151e-20)
(30.0229 -0.203188 5.75936e-20)
(30.0232 -0.204187 -1.88724e-20)
(30.0235 -0.205182 -1.63029e-20)
(30.0238 -0.206171 -1.41181e-20)
(30.0241 -0.207156 8.58194e-21)
(30.0244 -0.208135 5.51867e-20)
(30.0247 -0.209107 -2.38664e-20)
(30.0251 -0.210072 -1.0588e-20)
(30.0254 -0.211031 3.53332e-20)
(30.0257 -0.211981 -3.65474e-20)
(30.026 -0.212923 3.02405e-20)
(30.0263 -0.213856 -2.99082e-20)
(30.0266 -0.21478 -5.72972e-21)
(30.0269 -0.215695 -5.56645e-22)
(30.0272 -0.216599 4.05114e-21)
(30.0275 -0.217493 1.22719e-20)
(30.0278 -0.218376 5.33596e-21)
(30.0281 -0.219247 -3.78966e-20)
(30.0283 -0.220106 1.87329e-20)
(30.0286 -0.220953 2.8576e-20)
(30.0289 -0.221788 -5.54959e-21)
(30.0292 -0.222609 -3.65771e-20)
(30.0295 -0.223417 3.93815e-20)
(30.0298 -0.224211 -1.99403e-20)
(30.03 -0.22499 1.93575e-20)
(30.0303 -0.225756 -2.47754e-21)
(30.0306 -0.226506 -2.83378e-20)
(30.0308 -0.227242 4.38959e-21)
(30.0311 -0.227962 4.32012e-21)
(30.0313 -0.228666 5.82273e-21)
(30.0316 -0.229355 -1.52996e-21)
(30.0318 -0.230028 -7.91831e-21)
(30.032 -0.230684 -3.59014e-21)
(30.0323 -0.231324 -7.65419e-21)
(30.0325 -0.231948 2.16637e-20)
(30.0327 -0.232555 4.07991e-21)
(30.0329 -0.233145 -1.5703e-20)
(30.0331 -0.233719 1.14231e-21)
(30.0333 -0.234275 3.32303e-22)
(30.0335 -0.234815 -7.11881e-21)
(30.0337 -0.235338 4.98477e-21)
(30.0339 -0.235843 6.07545e-21)
(30.0341 -0.236333 6.93708e-21)
(30.0343 -0.236805 -6.27997e-21)
(30.0344 -0.23726 1.9013e-21)
(30.0346 -0.237699 -6.50349e-21)
(30.0347 -0.238122 4.92429e-21)
(30.0349 -0.238528 -1.03189e-21)
(30.035 -0.238918 1.23223e-21)
(30.0352 -0.239292 -6.82633e-22)
(30.0353 -0.239651 1.5604e-21)
(30.0354 -0.239993 -2.40075e-21)
(30.0356 -0.240321 -3.8176e-23)
(30.0357 -0.240633 1.44223e-21)
(30.0358 -0.24093 1.55002e-21)
(30.0359 -0.241213 7.90108e-22)
(30.036 -0.241481 -6.12027e-21)
(30.0361 -0.241735 1.44258e-21)
(30.0362 -0.241976 4.25622e-21)
(30.0363 -0.242203 -3.09424e-21)
(30.0363 -0.242416 -4.60768e-22)
(30.0364 -0.242617 1.34129e-21)
(30.0365 -0.242804 -3.27714e-21)
(30.0366 -0.24298 2.61252e-21)
(30.0366 -0.243143 -6.62004e-22)
(30.0367 -0.243294 1.01494e-21)
(30.0367 -0.243434 -5.8766e-22)
(30.0368 -0.243562 2.64728e-23)
(30.0369 -0.243678 4.03331e-22)
(30.0369 -0.243784 -4.44036e-22)
(30.0369 -0.243878 4.3288e-22)
(30.037 -0.243962 -6.50146e-22)
(30.037 -0.244035 8.23058e-23)
(30.0371 -0.244096 2.10048e-22)
(30.0371 -0.244148 -4.08019e-23)
(30.0372 -0.244188 7.92552e-24)
(30.0372 -0.244217 4.85757e-23)
(30.0372 -0.244233 -1.87715e-23)
(30.0373 -0.244238 6.50348e-24)
(30.0021 -0.132966 7.50807e-21)
(30.0022 -0.133436 -1.15182e-20)
(30.0023 -0.133913 2.7792e-20)
(30.0024 -0.134395 -2.93609e-20)
(30.0025 -0.134886 6.19584e-20)
(30.0026 -0.135383 -8.79619e-20)
(30.0027 -0.135888 4.80419e-20)
(30.0028 -0.136399 3.58069e-20)
(30.003 -0.136919 1.6608e-20)
(30.0031 -0.137445 -4.47895e-20)
(30.0032 -0.137979 3.74847e-20)
(30.0033 -0.138521 -3.46247e-20)
(30.0034 -0.13907 2.06743e-20)
(30.0036 -0.139627 -1.85293e-20)
(30.0037 -0.140191 3.78448e-21)
(30.0038 -0.140764 -2.71725e-20)
(30.0039 -0.141344 -1.35517e-20)
(30.0041 -0.141932 6.1421e-20)
(30.0042 -0.142528 -1.78685e-20)
(30.0044 -0.143132 -5.35673e-20)
(30.0045 -0.143744 -1.81734e-20)
(30.0046 -0.144364 2.24733e-20)
(30.0048 -0.144993 -2.49889e-20)
(30.0049 -0.14563 4.90058e-20)
(30.0051 -0.146275 -5.36963e-21)
(30.0052 -0.146928 1.23915e-20)
(30.0054 -0.14759 -3.25202e-20)
(30.0056 -0.14826 2.48497e-20)
(30.0057 -0.148939 2.38931e-20)
(30.0059 -0.149626 2.09144e-20)
(30.0061 -0.150321 -3.5162e-20)
(30.0062 -0.151026 -3.22483e-21)
(30.0064 -0.151738 -5.05561e-20)
(30.0066 -0.152459 8.40463e-20)
(30.0068 -0.153189 -6.93465e-20)
(30.0069 -0.153928 5.05959e-21)
(30.0071 -0.154675 2.08248e-20)
(30.0073 -0.15543 -2.83461e-20)
(30.0075 -0.156195 7.33931e-20)
(30.0077 -0.156967 -7.99611e-20)
(30.0079 -0.157748 8.88662e-20)
(30.0081 -0.158538 -7.57197e-20)
(30.0083 -0.159336 3.34243e-20)
(30.0085 -0.160143 2.68241e-20)
(30.0087 -0.160958 -4.25369e-20)
(30.009 -0.161782 1.90697e-20)
(30.0092 -0.162613 -2.60703e-20)
(30.0094 -0.163453 2.06691e-20)
(30.0096 -0.164301 1.74734e-20)
(30.0099 -0.165157 -1.08183e-20)
(30.0101 -0.166021 -6.66651e-21)
(30.0104 -0.166893 6.9973e-20)
(30.0106 -0.167773 -1.03603e-19)
(30.0109 -0.16866 6.68164e-20)
(30.0111 -0.169555 2.1449e-20)
(30.0114 -0.170457 -9.41549e-20)
(30.0116 -0.171366 2.96686e-20)
(30.0119 -0.172282 -2.61668e-20)
(30.0122 -0.173206 9.09455e-20)
(30.0124 -0.174136 -7.42028e-20)
(30.0127 -0.175072 1.86153e-20)
(30.013 -0.176015 -1.7193e-20)
(30.0133 -0.176964 9.01085e-20)
(30.0136 -0.177919 -4.06145e-20)
(30.0139 -0.178879 4.25514e-20)
(30.0142 -0.179845 -1.00416e-19)
(30.0145 -0.180817 -4.3286e-20)
(30.0148 -0.181793 3.07478e-20)
(30.0151 -0.182773 3.42578e-20)
(30.0154 -0.183758 3.2419e-20)
(30.0158 -0.184748 2.39661e-20)
(30.0161 -0.185741 -1.12186e-19)
(30.0164 -0.186737 6.41987e-20)
(30.0168 -0.187736 -3.60943e-20)
(30.0171 -0.188739 3.65639e-20)
(30.0174 -0.189743 3.87211e-20)
(30.0178 -0.19075 -9.59016e-20)
(30.0181 -0.191758 1.18271e-19)
(30.0185 -0.192768 -3.61613e-20)
(30.0188 -0.193778 -3.75704e-20)
(30.0192 -0.194789 4.89944e-20)
(30.0196 -0.1958 -5.74913e-20)
(30.0199 -0.196811 -2.44037e-20)
(30.0203 -0.197821 2.37776e-20)
(30.0207 -0.19883 4.99295e-20)
(30.021 -0.199837 -2.71526e-20)
(30.0214 -0.200841 1.47043e-20)
(30.0218 -0.201844 -2.12998e-20)
(30.0222 -0.202843 1.40752e-21)
(30.0226 -0.203839 -4.53913e-20)
(30.0229 -0.20483 5.78905e-20)
(30.0233 -0.205818 -1.87476e-20)
(30.0237 -0.2068 5.57231e-20)
(30.0241 -0.207777 -4.03916e-20)
(30.0245 -0.208747 -2.53197e-20)
(30.0249 -0.209712 9.34794e-22)
(30.0253 -0.210669 -7.64453e-21)
(30.0256 -0.21162 -1.28933e-20)
(30.026 -0.212562 5.95208e-21)
(30.0264 -0.213496 -1.05359e-20)
(30.0268 -0.214421 2.121e-20)
(30.0272 -0.215337 3.62463e-20)
(30.0276 -0.216243 -1.99524e-20)
(30.0279 -0.217139 4.06656e-20)
(30.0283 -0.218024 -2.56052e-20)
(30.0287 -0.218898 1.28007e-20)
(30.029 -0.21976 -2.4892e-20)
(30.0294 -0.220611 -2.194e-21)
(30.0298 -0.221449 2.08427e-20)
(30.0301 -0.222275 -4.27027e-20)
(30.0305 -0.223087 3.46153e-20)
(30.0308 -0.223886 1.23871e-20)
(30.0312 -0.224671 -4.30176e-20)
(30.0315 -0.225442 3.32682e-20)
(30.0318 -0.226198 -1.41213e-20)
(30.0322 -0.22694 -1.07593e-20)
(30.0325 -0.227666 -8.27942e-21)
(30.0328 -0.228377 3.36118e-21)
(30.0331 -0.229073 -7.92964e-21)
(30.0334 -0.229753 1.63403e-20)
(30.0337 -0.230417 -5.38333e-21)
(30.034 -0.231064 1.68194e-20)
(30.0343 -0.231696 -2.24707e-20)
(30.0346 -0.232311 1.33741e-20)
(30.0348 -0.232909 1.28265e-20)
(30.0351 -0.233491 -1.94601e-20)
(30.0353 -0.234056 8.69951e-21)
(30.0356 -0.234604 -1.01153e-21)
(30.0358 -0.235136 3.61505e-22)
(30.036 -0.23565 -1.06751e-20)
(30.0362 -0.236148 2.69675e-20)
(30.0364 -0.23663 -2.27125e-20)
(30.0366 -0.237094 1.10425e-20)
(30.0368 -0.237543 1.51068e-21)
(30.037 -0.237974 -3.76449e-22)
(30.0372 -0.238389 -8.69605e-22)
(30.0374 -0.238789 -8.09894e-21)
(30.0375 -0.239172 7.0769e-21)
(30.0377 -0.239539 2.31656e-21)
(30.0378 -0.23989 -6.99614e-21)
(30.0379 -0.240226 -2.36031e-22)
(30.0381 -0.240547 1.93386e-21)
(30.0382 -0.240853 3.50969e-21)
(30.0383 -0.241144 1.07052e-22)
(30.0384 -0.241421 -1.94379e-21)
(30.0385 -0.241683 1.33561e-22)
(30.0386 -0.241931 -2.86639e-22)
(30.0387 -0.242165 -2.627e-21)
(30.0388 -0.242386 8.3416e-21)
(30.0388 -0.242594 -3.84629e-21)
(30.0389 -0.242789 -1.14979e-21)
(30.0389 -0.242971 5.84356e-22)
(30.039 -0.24314 1.7515e-21)
(30.039 -0.243298 -9.90394e-23)
(30.0391 -0.243443 -1.46332e-21)
(30.0391 -0.243577 -2.98805e-22)
(30.0391 -0.243699 1.3323e-21)
(30.0392 -0.24381 -4.52958e-22)
(30.0392 -0.243909 1.33682e-22)
(30.0392 -0.243997 -1.85542e-22)
(30.0392 -0.244074 -8.55054e-23)
(30.0392 -0.24414 2.00828e-22)
(30.0393 -0.244195 -1.40315e-22)
(30.0393 -0.244239 -5.60028e-23)
(30.0393 -0.24427 1.04093e-22)
(30.0393 -0.244291 -1.80754e-23)
(30.0393 -0.244298 -1.24413e-23)
(29.9945 -0.133507 2.60649e-20)
(29.9946 -0.133981 -3.60048e-20)
(29.9948 -0.134461 -1.40476e-20)
(29.9949 -0.134947 3.66036e-20)
(29.995 -0.135441 -1.32149e-20)
(29.9951 -0.135942 1.31976e-20)
(29.9952 -0.13645 -3.47146e-20)
(29.9954 -0.136966 1.78718e-20)
(29.9955 -0.137489 3.09758e-20)
(29.9956 -0.13802 -5.21312e-20)
(29.9957 -0.138558 8.58056e-20)
(29.9959 -0.139104 -8.51088e-20)
(29.996 -0.139657 5.02216e-20)
(29.9962 -0.140218 -3.78224e-20)
(29.9963 -0.140787 3.99186e-22)
(29.9964 -0.141364 5.84975e-20)
(29.9966 -0.141949 -1.13066e-19)
(29.9967 -0.142542 6.04957e-20)
(29.9969 -0.143143 5.92008e-21)
(29.9971 -0.143752 -1.34181e-21)
(29.9972 -0.144369 -3.05755e-20)
(29.9974 -0.144994 -1.57386e-20)
(29.9976 -0.145628 -3.15787e-20)
(29.9977 -0.14627 9.19807e-20)
(29.9979 -0.14692 -7.04181e-21)
(29.9981 -0.147579 3.49359e-20)
(29.9983 -0.148246 -5.44931e-20)
(29.9985 -0.148922 1.63698e-20)
(29.9986 -0.149606 -3.45523e-20)
(29.9988 -0.150299 4.05278e-20)
(29.999 -0.151 4.07255e-20)
(29.9992 -0.15171 -5.62238e-20)
(29.9995 -0.152428 -2.74799e-20)
(29.9997 -0.153155 4.35938e-20)
(29.9999 -0.153891 -8.6896e-20)
(30.0001 -0.154635 1.19751e-19)
(30.0003 -0.155388 -4.73577e-20)
(30.0005 -0.15615 4.53044e-20)
(30.0008 -0.15692 9.47752e-21)
(30.001 -0.157699 -5.53225e-20)
(30.0013 -0.158486 8.42146e-21)
(30.0015 -0.159282 1.20724e-20)
(30.0018 -0.160086 -1.31543e-21)
(30.002 -0.160899 -6.94637e-20)
(30.0023 -0.16172 7.42987e-20)
(30.0025 -0.16255 -1.40539e-20)
(30.0028 -0.163387 7.33747e-21)
(30.0031 -0.164233 1.54487e-20)
(30.0034 -0.165087 -3.65008e-20)
(30.0037 -0.165949 4.93962e-20)
(30.004 -0.166819 -3.65832e-20)
(30.0043 -0.167697 -1.14626e-20)
(30.0046 -0.168583 3.39998e-20)
(30.0049 -0.169476 1.33835e-20)
(30.0052 -0.170376 -3.24804e-20)
(30.0055 -0.171284 -1.74676e-20)
(30.0058 -0.172198 -4.97394e-20)
(30.0062 -0.17312 3.39879e-20)
(30.0065 -0.174049 -5.56006e-20)
(30.0068 -0.174984 9.70279e-20)
(30.0072 -0.175925 7.54497e-21)
(30.0075 -0.176873 -1.1896e-19)
(30.0079 -0.177827 1.37822e-19)
(30.0083 -0.178786 -1.07153e-19)
(30.0086 -0.179751 1.4999e-20)
(30.009 -0.180721 6.08529e-20)
(30.0094 -0.181696 -6.12292e-20)
(30.0098 -0.182675 7.38847e-20)
(30.0102 -0.18366 -1.20514e-19)
(30.0106 -0.184648 6.41443e-20)
(30.011 -0.18564 5.3955e-20)
(30.0114 -0.186635 -5.69421e-20)
(30.0118 -0.187634 1.13789e-19)
(30.0122 -0.188635 -3.07444e-20)
(30.0127 -0.189639 2.10114e-20)
(30.0131 -0.190644 -1.20792e-19)
(30.0135 -0.191652 2.30456e-20)
(30.014 -0.192661 -4.47776e-20)
(30.0144 -0.19367 9.28203e-20)
(30.0149 -0.194681 -1.0254e-19)
(30.0153 -0.195691 9.7013e-20)
(30.0158 -0.196701 -4.52653e-20)
(30.0162 -0.19771 8.28766e-20)
(30.0167 -0.198718 -1.22557e-19)
(30.0172 -0.199724 9.20133e-20)
(30.0176 -0.200728 -4.43825e-21)
(30.0181 -0.20173 -1.05704e-19)
(30.0186 -0.202728 1.55805e-19)
(30.0191 -0.203723 -8.32185e-20)
(30.0196 -0.204714 -1.7179e-20)
(30.0201 -0.2057 4.83017e-20)
(30.0205 -0.206682 -2.29666e-20)
(30.021 -0.207658 -1.53884e-20)
(30.0215 -0.208628 5.97028e-20)
(30.022 -0.209592 -6.68632e-20)
(30.0225 -0.210549 2.04497e-21)
(30.023 -0.211498 -3.29437e-20)
(30.0235 -0.212439 6.62255e-20)
(30.024 -0.213373 3.71641e-21)
(30.0245 -0.214297 -1.17453e-20)
(30.025 -0.215212 -5.80926e-21)
(30.0254 -0.216118 -3.0795e-20)
(30.0259 -0.217013 7.88407e-21)
(30.0264 -0.217898 3.3224e-20)
(30.0269 -0.218771 -5.98095e-20)
(30.0274 -0.219633 4.72883e-20)
(30.0278 -0.220483 1.61882e-20)
(30.0283 -0.221321 -2.66608e-20)
(30.0288 -0.222147 3.57355e-20)
(30.0292 -0.222959 -1.06609e-21)
(30.0297 -0.223758 -3.06868e-20)
(30.0301 -0.224543 2.06117e-20)
(30.0306 -0.225314 1.38412e-20)
(30.031 -0.22607 -1.9855e-20)
(30.0315 -0.226812 4.53872e-21)
(30.0319 -0.227539 -9.26274e-21)
(30.0323 -0.228251 -5.6101e-21)
(30.0327 -0.228947 -2.72676e-20)
(30.0331 -0.229628 5.26005e-20)
(30.0335 -0.230293 2.51698e-21)
(30.0339 -0.230942 -2.4252e-20)
(30.0343 -0.231574 4.37949e-21)
(30.0346 -0.232191 -2.10098e-20)
(30.035 -0.232791 2.38376e-20)
(30.0353 -0.233374 1.98054e-20)
(30.0357 -0.233941 -1.98749e-20)
(30.036 -0.234491 1.62415e-20)
(30.0363 -0.235025 -5.73193e-21)
(30.0366 -0.235542 -1.99741e-20)
(30.0369 -0.236043 -5.50997e-21)
(30.0372 -0.236526 -1.03622e-21)
(30.0375 -0.236994 3.43103e-21)
(30.0377 -0.237445 2.00045e-20)
(30.038 -0.237879 -2.25243e-20)
(30.0382 -0.238298 4.63078e-21)
(30.0385 -0.2387 -2.61715e-21)
(30.0387 -0.239086 6.02322e-21)
(30.0389 -0.239457 5.75692e-21)
(30.0391 -0.239812 -6.93979e-21)
(30.0393 -0.240152 5.54313e-21)
(30.0395 -0.240476 -6.59172e-21)
(30.0397 -0.240786 5.42554e-21)
(30.0398 -0.241081 -3.02257e-21)
(30.04 -0.241361 -5.29404e-22)
(30.0401 -0.241628 -8.545e-22)
(30.0403 -0.24188 5.22061e-22)
(30.0404 -0.242118 5.95886e-22)
(30.0405 -0.242344 -1.78824e-21)
(30.0406 -0.242556 3.44315e-21)
(30.0407 -0.242755 1.88463e-23)
(30.0408 -0.242941 9.63184e-22)
(30.0409 -0.243115 -2.40105e-21)
(30.0409 -0.243278 1.11013e-21)
(30.041 -0.243428 5.75311e-22)
(30.0411 -0.243566 -2.43155e-21)
(30.0411 -0.243693 2.24888e-21)
(30.0412 -0.243809 -1.08953e-22)
(30.0412 -0.243914 -9.48717e-22)
(30.0412 -0.244008 -3.99507e-22)
(30.0413 -0.244091 -2.79096e-22)
(30.0413 -0.244163 3.13148e-23)
(30.0413 -0.244224 1.29565e-22)
(30.0413 -0.244275 -1.59672e-22)
(30.0413 -0.244314 -9.93341e-23)
(30.0413 -0.244342 -6.20181e-23)
(30.0414 -0.244358 -2.68183e-23)
(30.0413 -0.244362 -1.18025e-23)
(29.9884 -0.135204 -5.48952e-20)
(29.9885 -0.135666 -3.1986e-20)
(29.9887 -0.136135 7.28352e-20)
(29.9888 -0.136609 -3.7597e-20)
(29.9889 -0.137091 5.15079e-21)
(29.989 -0.13758 8.44177e-21)
(29.9892 -0.138077 7.76911e-21)
(29.9893 -0.13858 3.23412e-20)
(29.9895 -0.139091 -8.57451e-20)
(29.9896 -0.13961 2.34179e-20)
(29.9898 -0.140136 2.91679e-20)
(29.9899 -0.140669 5.98398e-21)
(29.9901 -0.14121 -5.80015e-21)
(29.9902 -0.141759 5.11742e-20)
(29.9904 -0.142315 -5.49565e-20)
(29.9906 -0.142879 1.41118e-20)
(29.9907 -0.143451 2.30228e-20)
(29.9909 -0.144032 -4.48592e-20)
(29.9911 -0.14462 -2.7826e-20)
(29.9912 -0.145216 7.24408e-20)
(29.9914 -0.14582 -8.29352e-20)
(29.9916 -0.146433 7.49513e-20)
(29.9918 -0.147054 -1.70104e-20)
(29.992 -0.147683 -6.37612e-21)
(29.9922 -0.14832 -6.86632e-20)
(29.9924 -0.148966 3.85313e-21)
(29.9926 -0.14962 9.9759e-20)
(29.9928 -0.150283 -8.0291e-20)
(29.993 -0.150954 -1.66457e-21)
(29.9933 -0.151634 3.29875e-20)
(29.9935 -0.152323 4.09296e-20)
(29.9937 -0.15302 1.51317e-20)
(29.9939 -0.153726 -3.31837e-20)
(29.9942 -0.15444 -6.4756e-20)
(29.9944 -0.155163 5.58309e-20)
(29.9947 -0.155895 2.23491e-20)
(29.9949 -0.156635 -3.25132e-20)
(29.9952 -0.157384 -6.07798e-20)
(29.9955 -0.158142 3.97171e-20)
(29.9957 -0.158908 7.36463e-20)
(29.996 -0.159683 -3.00512e-20)
(29.9963 -0.160467 4.26666e-20)
(29.9966 -0.161259 -1.35156e-19)
(29.9969 -0.162059 3.98952e-20)
(29.9972 -0.162869 3.47176e-20)
(29.9975 -0.163686 -1.55069e-20)
(29.9978 -0.164512 -5.6235e-21)
(29.9981 -0.165346 3.38194e-20)
(29.9984 -0.166188 -1.38343e-20)
(29.9988 -0.167038 -2.98623e-20)
(29.9991 -0.167897 3.72907e-20)
(29.9994 -0.168763 -1.39587e-20)
(29.9998 -0.169637 5.28961e-20)
(30.0001 -0.170518 -4.82529e-20)
(30.0005 -0.171407 -4.88371e-23)
(30.0009 -0.172304 4.47349e-20)
(30.0012 -0.173207 2.40698e-20)
(30.0016 -0.174118 -4.75883e-20)
(30.002 -0.175035 -5.58194e-20)
(30.0024 -0.175959 3.14206e-20)
(30.0028 -0.176889 4.64939e-20)
(30.0032 -0.177826 -4.46458e-20)
(30.0036 -0.178769 -4.83007e-20)
(30.0041 -0.179717 5.19294e-20)
(30.0045 -0.180671 -3.99231e-20)
(30.0049 -0.18163 -1.5501e-20)
(30.0054 -0.182594 7.63325e-20)
(30.0058 -0.183563 -4.3037e-20)
(30.0063 -0.184536 -1.38182e-20)
(30.0067 -0.185513 -6.8015e-20)
(30.0072 -0.186494 1.14289e-19)
(30.0077 -0.187478 3.79907e-20)
(30.0082 -0.188466 3.40413e-20)
(30.0087 -0.189456 1.75605e-20)
(30.0092 -0.190449 -1.64001e-19)
(30.0097 -0.191443 1.83933e-20)
(30.0102 -0.192439 1.501e-20)